PROCAR lm decomposed
# of k-points:   65         # of bands:   36         # of ions:    5

 k-point     1 :    0.00000000 0.00000000 0.00000000     weight = 0.00195312

band     1 # energy  -10.05805591 # occ.  2.00000000
 
ion      s     py     pz     px    dxy    dyz    dz2    dxz  x2-y2    tot
    1  0.153  0.000  0.000  0.000  0.000  0.000  0.000  0.000  0.000  0.153
    2  0.153  0.000  0.000  0.000  0.000  0.000  0.000  0.000  0.000  0.153
    3  0.186  0.000  0.000  0.000  0.000  0.000  0.000  0.000  0.000  0.186
    4  0.108  0.000  0.002  0.000  0.000  0.000  0.000  0.000  0.000  0.110
    5  0.108  0.000  0.002  0.000  0.000  0.000  0.000  0.000  0.000  0.110
tot    0.709  0.000  0.003  0.000  0.000  0.000  0.000  0.000  0.000  0.712
 
band     2 # energy   -9.26357149 # occ.  2.00000000
 
ion      s     py     pz     px    dxy    dyz    dz2    dxz  x2-y2    tot
    1  0.162  0.000  0.005  0.000  0.000  0.000  0.000  0.000  0.000  0.167
    2  0.162  0.000  0.005  0.000  0.000  0.000  0.000  0.000  0.000  0.167
    3  0.000  0.000  0.004  0.000  0.000  0.000  0.000  0.000  0.000  0.004
    4  0.202  0.000  0.004  0.000  0.000  0.000  0.000  0.000  0.000  0.207
    5  0.202  0.000  0.004  0.000  0.000  0.000  0.000  0.000  0.000  0.207
tot    0.728  0.000  0.023  0.000  0.000  0.000  0.000  0.000  0.000  0.751
 
band     3 # energy   -8.46019803 # occ.  2.00000000
 
ion      s     py     pz     px    dxy    dyz    dz2    dxz  x2-y2    tot
    1  0.000  0.000  0.022  0.000  0.000  0.000  0.000  0.000  0.000  0.022
    2  0.000  0.000  0.022  0.000  0.000  0.000  0.000  0.000  0.000  0.022
    3  0.346  0.000  0.000  0.000  0.000  0.000  0.000  0.000  0.000  0.346
    4  0.161  0.000  0.000  0.000  0.000  0.000  0.000  0.000  0.000  0.161
    5  0.161  0.000  0.000  0.000  0.000  0.000  0.000  0.000  0.000  0.161
tot    0.668  0.000  0.043  0.000  0.000  0.000  0.000  0.000  0.000  0.712
 
band     4 # energy   -5.15797973 # occ.  2.00000000
 
ion      s     py     pz     px    dxy    dyz    dz2    dxz  x2-y2    tot
    1  0.230  0.000  0.010  0.000  0.000  0.000  0.000  0.000  0.000  0.241
    2  0.230  0.000  0.010  0.000  0.000  0.000  0.000  0.000  0.000  0.241
    3  0.000  0.000  0.025  0.000  0.000  0.000  0.000  0.000  0.000  0.025
    4  0.165  0.000  0.002  0.000  0.000  0.000  0.000  0.000  0.000  0.167
    5  0.165  0.000  0.002  0.000  0.000  0.000  0.000  0.000  0.000  0.167
tot    0.790  0.000  0.049  0.000  0.000  0.000  0.000  0.000  0.000  0.840
 
band     5 # energy   -4.29704175 # occ.  2.00000000
 
ion      s     py     pz     px    dxy    dyz    dz2    dxz  x2-y2    tot
    1  0.259  0.000  0.000  0.000  0.000  0.000  0.000  0.000  0.000  0.260
    2  0.259  0.000  0.000  0.000  0.000  0.000  0.000  0.000  0.000  0.260
    3  0.174  0.000  0.000  0.000  0.000  0.000  0.000  0.000  0.000  0.174
    4  0.076  0.000  0.013  0.000  0.000  0.000  0.000  0.000  0.000  0.088
    5  0.076  0.000  0.013  0.000  0.000  0.000  0.000  0.000  0.000  0.088
tot    0.844  0.000  0.026  0.000  0.000  0.000  0.001  0.000  0.000  0.871
 
band     6 # energy    2.26879816 # occ.  2.00000000
 
ion      s     py     pz     px    dxy    dyz    dz2    dxz  x2-y2    tot
    1  0.031  0.000  0.019  0.000  0.000  0.000  0.005  0.000  0.000  0.056
    2  0.031  0.000  0.019  0.000  0.000  0.000  0.005  0.000  0.000  0.056
    3  0.015  0.000  0.000  0.000  0.000  0.000  0.000  0.000  0.000  0.016
    4  0.007  0.000  0.204  0.000  0.000  0.000  0.000  0.000  0.000  0.211
    5  0.007  0.000  0.204  0.000  0.000  0.000  0.000  0.000  0.000  0.211
tot    0.092  0.000  0.447  0.000  0.000  0.000  0.011  0.000  0.000  0.550
 
band     7 # energy    2.28898235 # occ.  2.00000000
 
ion      s     py     pz     px    dxy    dyz    dz2    dxz  x2-y2    tot
    1  0.026  0.000  0.097  0.000  0.000  0.000  0.001  0.000  0.000  0.124
    2  0.026  0.000  0.097  0.000  0.000  0.000  0.001  0.000  0.000  0.124
    3  0.000  0.000  0.317  0.000  0.000  0.000  0.000  0.000  0.000  0.317
    4  0.020  0.000  0.026  0.000  0.000  0.000  0.001  0.000  0.000  0.046
    5  0.020  0.000  0.026  0.000  0.000  0.000  0.001  0.000  0.000  0.046
tot    0.092  0.000  0.562  0.000  0.000  0.000  0.003  0.000  0.000  0.658
 
band     8 # energy    2.51209273 # occ.  2.00000000
 
ion      s     py     pz     px    dxy    dyz    dz2    dxz  x2-y2    tot
    1  0.000  0.022  0.000  0.079  0.000  0.000  0.000  0.000  0.000  0.102
    2  0.000  0.022  0.000  0.079  0.000  0.000  0.000  0.000  0.000  0.102
    3  0.000  0.066  0.000  0.237  0.000  0.000  0.000  0.000  0.000  0.303
    4  0.000  0.014  0.000  0.050  0.001  0.000  0.000  0.001  0.000  0.066
    5  0.000  0.014  0.000  0.050  0.001  0.000  0.000  0.001  0.000  0.066
tot    0.000  0.139  0.000  0.497  0.002  0.000  0.000  0.001  0.001  0.639
 
band     9 # energy    2.51209273 # occ.  2.00000000
 
ion      s     py     pz     px    dxy    dyz    dz2    dxz  x2-y2    tot
    1  0.000  0.079  0.000  0.022  0.000  0.000  0.000  0.000  0.000  0.102
    2  0.000  0.079  0.000  0.022  0.000  0.000  0.000  0.000  0.000  0.102
    3  0.000  0.237  0.000  0.066  0.000  0.000  0.000  0.000  0.000  0.303
    4  0.000  0.050  0.000  0.014  0.000  0.001  0.000  0.000  0.001  0.066
    5  0.000  0.050  0.000  0.014  0.000  0.001  0.000  0.000  0.001  0.066
tot    0.000  0.497  0.000  0.139  0.001  0.001  0.000  0.000  0.002  0.639
 
band    10 # energy    2.66357868 # occ.  2.00000000
 
ion      s     py     pz     px    dxy    dyz    dz2    dxz  x2-y2    tot
    1  0.000  0.004  0.000  0.072  0.007  0.000  0.000  0.003  0.000  0.087
    2  0.000  0.004  0.000  0.072  0.007  0.000  0.000  0.003  0.000  0.087
    3  0.000  0.000  0.000  0.000  0.001  0.000  0.000  0.000  0.000  0.001
    4  0.000  0.013  0.000  0.218  0.000  0.000  0.000  0.001  0.000  0.232
    5  0.000  0.013  0.000  0.218  0.000  0.000  0.000  0.001  0.000  0.232
tot    0.000  0.034  0.000  0.581  0.016  0.000  0.000  0.008  0.001  0.639
 
band    11 # energy    2.66357868 # occ.  2.00000000
 
ion      s     py     pz     px    dxy    dyz    dz2    dxz  x2-y2    tot
    1  0.000  0.072  0.000  0.004  0.000  0.003  0.000  0.000  0.007  0.087
    2  0.000  0.072  0.000  0.004  0.000  0.003  0.000  0.000  0.007  0.087
    3  0.000  0.000  0.000  0.000  0.000  0.000  0.000  0.000  0.001  0.001
    4  0.000  0.218  0.000  0.013  0.000  0.001  0.000  0.000  0.000  0.232
    5  0.000  0.218  0.000  0.013  0.000  0.001  0.000  0.000  0.000  0.232
tot    0.000  0.581  0.000  0.034  0.001  0.008  0.000  0.000  0.016  0.639
 
band    12 # energy    3.21433635 # occ.  2.00000000
 
ion      s     py     pz     px    dxy    dyz    dz2    dxz  x2-y2    tot
    1  0.000  0.003  0.000  0.007  0.013  0.003  0.000  0.007  0.005  0.037
    2  0.000  0.003  0.000  0.007  0.013  0.003  0.000  0.007  0.005  0.037
    3  0.000  0.053  0.000  0.138  0.000  0.000  0.000  0.000  0.000  0.191
    4  0.000  0.049  0.000  0.126  0.000  0.000  0.000  0.001  0.000  0.176
    5  0.000  0.049  0.000  0.126  0.000  0.000  0.000  0.001  0.000  0.176
tot    0.000  0.156  0.000  0.403  0.026  0.006  0.000  0.016  0.010  0.616
 
band    13 # energy    3.21433635 # occ.  2.00000000
 
ion      s     py     pz     px    dxy    dyz    dz2    dxz  x2-y2    tot
    1  0.000  0.007  0.000  0.003  0.005  0.007  0.000  0.003  0.013  0.037
    2  0.000  0.007  0.000  0.003  0.005  0.007  0.000  0.003  0.013  0.037
    3  0.000  0.138  0.000  0.053  0.000  0.000  0.000  0.000  0.000  0.191
    4  0.000  0.126  0.000  0.049  0.000  0.001  0.000  0.000  0.000  0.176
    5  0.000  0.126  0.000  0.049  0.000  0.001  0.000  0.000  0.000  0.176
tot    0.000  0.403  0.000  0.156  0.010  0.016  0.000  0.006  0.026  0.616
 
band    14 # energy    4.43094843 # occ.  2.00000000
 
ion      s     py     pz     px    dxy    dyz    dz2    dxz  x2-y2    tot
    1  0.051  0.000  0.004  0.000  0.000  0.000  0.012  0.000  0.000  0.067
    2  0.051  0.000  0.004  0.000  0.000  0.000  0.012  0.000  0.000  0.067
    3  0.000  0.000  0.039  0.000  0.000  0.000  0.000  0.000  0.000  0.039
    4  0.001  0.000  0.233  0.000  0.000  0.000  0.001  0.000  0.000  0.235
    5  0.001  0.000  0.233  0.000  0.000  0.000  0.001  0.000  0.000  0.235
tot    0.104  0.000  0.513  0.000  0.000  0.000  0.027  0.000  0.000  0.644
 
band    15 # energy    4.65927047 # occ.  0.00000000
 
ion      s     py     pz     px    dxy    dyz    dz2    dxz  x2-y2    tot
    1  0.003  0.000  0.226  0.000  0.000  0.000  0.000  0.000  0.000  0.229
    2  0.003  0.000  0.226  0.000  0.000  0.000  0.000  0.000  0.000  0.229
    3  0.069  0.000  0.000  0.000  0.000  0.000  0.006  0.000  0.000  0.075
    4  0.028  0.000  0.003  0.000  0.000  0.000  0.003  0.000  0.000  0.035
    5  0.028  0.000  0.003  0.000  0.000  0.000  0.003  0.000  0.000  0.035
tot    0.130  0.000  0.459  0.000  0.000  0.000  0.012  0.000  0.000  0.601
 
band    16 # energy    5.83197141 # occ.  0.00000000
 
ion      s     py     pz     px    dxy    dyz    dz2    dxz  x2-y2    tot
    1  0.000  0.054  0.000  0.217  0.003  0.000  0.000  0.001  0.001  0.276
    2  0.000  0.054  0.000  0.217  0.003  0.000  0.000  0.001  0.001  0.276
    3  0.000  0.000  0.000  0.000  0.008  0.001  0.000  0.005  0.002  0.017
    4  0.000  0.009  0.000  0.037  0.005  0.000  0.000  0.001  0.001  0.054
    5  0.000  0.009  0.000  0.037  0.005  0.000  0.000  0.001  0.001  0.054
tot    0.000  0.127  0.000  0.507  0.024  0.003  0.000  0.011  0.006  0.678
 
band    17 # energy    5.83197141 # occ.  0.00000000
 
ion      s     py     pz     px    dxy    dyz    dz2    dxz  x2-y2    tot
    1  0.000  0.217  0.000  0.054  0.001  0.001  0.000  0.000  0.003  0.276
    2  0.000  0.217  0.000  0.054  0.001  0.001  0.000  0.000  0.003  0.276
    3  0.000  0.000  0.000  0.000  0.002  0.005  0.000  0.001  0.008  0.017
    4  0.000  0.037  0.000  0.009  0.001  0.001  0.000  0.000  0.005  0.054
    5  0.000  0.037  0.000  0.009  0.001  0.001  0.000  0.000  0.005  0.054
tot    0.000  0.507  0.000  0.127  0.006  0.011  0.000  0.003  0.024  0.678
 
band    18 # energy    6.59646329 # occ.  0.00000000
 
ion      s     py     pz     px    dxy    dyz    dz2    dxz  x2-y2    tot
    1  0.006  0.000  0.186  0.000  0.000  0.000  0.001  0.000  0.000  0.193
    2  0.006  0.000  0.186  0.000  0.000  0.000  0.001  0.000  0.000  0.193
    3  0.000  0.000  0.134  0.000  0.000  0.000  0.000  0.000  0.000  0.134
    4  0.016  0.000  0.014  0.000  0.000  0.000  0.009  0.000  0.000  0.038
    5  0.016  0.000  0.014  0.000  0.000  0.000  0.009  0.000  0.000  0.038
tot    0.043  0.000  0.534  0.000  0.000  0.000  0.019  0.000  0.000  0.596
 
band    19 # energy    7.18431669 # occ.  0.00000000
 
ion      s     py     pz     px    dxy    dyz    dz2    dxz  x2-y2    tot
    1  0.000  0.224  0.000  0.038  0.000  0.001  0.000  0.000  0.001  0.264
    2  0.000  0.224  0.000  0.038  0.000  0.001  0.000  0.000  0.001  0.264
    3  0.000  0.057  0.000  0.010  0.000  0.000  0.000  0.000  0.000  0.066
    4  0.000  0.044  0.000  0.008  0.001  0.001  0.000  0.000  0.006  0.060
    5  0.000  0.044  0.000  0.008  0.001  0.001  0.000  0.000  0.006  0.060
tot    0.000  0.595  0.000  0.100  0.002  0.003  0.000  0.000  0.014  0.714
 
band    20 # energy    7.18431669 # occ.  0.00000000
 
ion      s     py     pz     px    dxy    dyz    dz2    dxz  x2-y2    tot
    1  0.000  0.038  0.000  0.224  0.001  0.000  0.000  0.001  0.000  0.264
    2  0.000  0.038  0.000  0.224  0.001  0.000  0.000  0.001  0.000  0.264
    3  0.000  0.010  0.000  0.057  0.000  0.000  0.000  0.000  0.000  0.066
    4  0.000  0.008  0.000  0.044  0.006  0.000  0.000  0.001  0.001  0.060
    5  0.000  0.008  0.000  0.044  0.006  0.000  0.000  0.001  0.001  0.060
tot    0.000  0.100  0.000  0.595  0.014  0.000  0.000  0.003  0.002  0.714
 
band    21 # energy   10.25758893 # occ.  0.00000000
 
ion      s     py     pz     px    dxy    dyz    dz2    dxz  x2-y2    tot
    1  0.002  0.000  0.019  0.000  0.000  0.000  0.109  0.000  0.000  0.129
    2  0.002  0.000  0.019  0.000  0.000  0.000  0.109  0.000  0.000  0.129
    3  0.001  0.000  0.000  0.000  0.000  0.000  0.065  0.000  0.000  0.065
    4  0.000  0.000  0.012  0.000  0.000  0.000  0.006  0.000  0.000  0.018
    5  0.000  0.000  0.012  0.000  0.000  0.000  0.006  0.000  0.000  0.018
tot    0.004  0.000  0.061  0.000  0.000  0.000  0.295  0.000  0.000  0.360
 
band    22 # energy   11.31316308 # occ.  0.00000000
 
ion      s     py     pz     px    dxy    dyz    dz2    dxz  x2-y2    tot
    1  0.000  0.000  0.000  0.001  0.068  0.014  0.000  0.033  0.028  0.144
    2  0.000  0.000  0.000  0.001  0.068  0.014  0.000  0.033  0.028  0.144
    3  0.000  0.000  0.000  0.000  0.038  0.008  0.000  0.019  0.016  0.081
    4  0.000  0.001  0.000  0.003  0.007  0.001  0.000  0.003  0.003  0.018
    5  0.000  0.001  0.000  0.003  0.007  0.001  0.000  0.003  0.003  0.018
tot    0.000  0.003  0.000  0.008  0.189  0.037  0.000  0.090  0.078  0.405
 
band    23 # energy   11.31316308 # occ.  0.00000000
 
ion      s     py     pz     px    dxy    dyz    dz2    dxz  x2-y2    tot
    1  0.000  0.001  0.000  0.000  0.028  0.033  0.000  0.014  0.068  0.144
    2  0.000  0.001  0.000  0.000  0.028  0.033  0.000  0.014  0.068  0.144
    3  0.000  0.000  0.000  0.000  0.016  0.019  0.000  0.008  0.038  0.081
    4  0.000  0.003  0.000  0.001  0.003  0.003  0.000  0.001  0.007  0.018
    5  0.000  0.003  0.000  0.001  0.003  0.003  0.000  0.001  0.007  0.018
tot    0.000  0.008  0.000  0.003  0.078  0.090  0.000  0.037  0.189  0.405
 
band    24 # energy   11.45469987 # occ.  0.00000000
 
ion      s     py     pz     px    dxy    dyz    dz2    dxz  x2-y2    tot
    1  0.001  0.000  0.064  0.000  0.000  0.000  0.041  0.000  0.000  0.105
    2  0.001  0.000  0.064  0.000  0.000  0.000  0.041  0.000  0.000  0.105
    3  0.000  0.000  0.001  0.000  0.000  0.000  0.000  0.000  0.000  0.001
    4  0.000  0.000  0.020  0.000  0.000  0.000  0.027  0.000  0.000  0.047
    5  0.000  0.000  0.020  0.000  0.000  0.000  0.027  0.000  0.000  0.047
tot    0.002  0.000  0.169  0.000  0.000  0.000  0.135  0.000  0.000  0.306
 
band    25 # energy   11.53577950 # occ.  0.00000000
 
ion      s     py     pz     px    dxy    dyz    dz2    dxz  x2-y2    tot
    1  0.072  0.000  0.000  0.000  0.000  0.000  0.000  0.000  0.000  0.072
    2  0.072  0.000  0.000  0.000  0.000  0.000  0.000  0.000  0.000  0.072
    3  0.027  0.000  0.000  0.000  0.000  0.000  0.001  0.000  0.000  0.028
    4  0.045  0.000  0.015  0.000  0.000  0.000  0.000  0.000  0.000  0.060
    5  0.045  0.000  0.015  0.000  0.000  0.000  0.000  0.000  0.000  0.060
tot    0.260  0.000  0.030  0.000  0.000  0.000  0.001  0.000  0.000  0.292
 
band    26 # energy   12.23689068 # occ.  0.00000000
 
ion      s     py     pz     px    dxy    dyz    dz2    dxz  x2-y2    tot
    1  0.000  0.002  0.000  0.012  0.062  0.007  0.000  0.038  0.011  0.131
    2  0.000  0.002  0.000  0.012  0.062  0.007  0.000  0.038  0.011  0.131
    3  0.000  0.000  0.000  0.002  0.000  0.000  0.000  0.000  0.000  0.002
    4  0.000  0.001  0.000  0.004  0.032  0.003  0.000  0.019  0.006  0.065
    5  0.000  0.001  0.000  0.004  0.032  0.003  0.000  0.019  0.006  0.065
tot    0.000  0.006  0.000  0.033  0.188  0.020  0.000  0.112  0.034  0.394
 
band    27 # energy   12.23689068 # occ.  0.00000000
 
ion      s     py     pz     px    dxy    dyz    dz2    dxz  x2-y2    tot
    1  0.000  0.012  0.000  0.002  0.011  0.038  0.000  0.007  0.062  0.131
    2  0.000  0.012  0.000  0.002  0.011  0.038  0.000  0.007  0.062  0.131
    3  0.000  0.002  0.000  0.000  0.000  0.000  0.000  0.000  0.000  0.002
    4  0.000  0.004  0.000  0.001  0.006  0.019  0.000  0.003  0.032  0.065
    5  0.000  0.004  0.000  0.001  0.006  0.019  0.000  0.003  0.032  0.065
tot    0.000  0.033  0.000  0.006  0.034  0.112  0.000  0.020  0.188  0.394
 
band    28 # energy   12.99496077 # occ.  0.00000000
 
ion      s     py     pz     px    dxy    dyz    dz2    dxz  x2-y2    tot
    1  0.000  0.000  0.000  0.000  0.045  0.035  0.000  0.088  0.018  0.186
    2  0.000  0.000  0.000  0.000  0.045  0.035  0.000  0.088  0.018  0.186
    3  0.000  0.000  0.000  0.000  0.017  0.015  0.000  0.038  0.007  0.076
    4  0.000  0.000  0.000  0.001  0.015  0.009  0.000  0.022  0.006  0.054
    5  0.000  0.000  0.000  0.001  0.015  0.009  0.000  0.022  0.006  0.054
tot    0.000  0.001  0.000  0.002  0.137  0.103  0.000  0.257  0.055  0.555
 
band    29 # energy   12.99496077 # occ.  0.00000000
 
ion      s     py     pz     px    dxy    dyz    dz2    dxz  x2-y2    tot
    1  0.000  0.000  0.000  0.000  0.018  0.088  0.000  0.035  0.045  0.186
    2  0.000  0.000  0.000  0.000  0.018  0.087  0.000  0.035  0.045  0.186
    3  0.000  0.000  0.000  0.000  0.007  0.038  0.000  0.015  0.017  0.076
    4  0.000  0.001  0.000  0.000  0.006  0.022  0.000  0.009  0.015  0.054
    5  0.000  0.001  0.000  0.000  0.006  0.022  0.000  0.009  0.015  0.054
tot    0.000  0.002  0.000  0.001  0.055  0.257  0.000  0.103  0.137  0.555
 
band    30 # energy   13.15602374 # occ.  0.00000000
 
ion      s     py     pz     px    dxy    dyz    dz2    dxz  x2-y2    tot
    1  0.014  0.000  0.019  0.000  0.000  0.000  0.069  0.000  0.000  0.102
    2  0.014  0.000  0.019  0.000  0.000  0.000  0.069  0.000  0.000  0.102
    3  0.000  0.000  0.113  0.000  0.000  0.000  0.000  0.000  0.000  0.113
    4  0.006  0.000  0.029  0.000  0.000  0.000  0.001  0.000  0.000  0.035
    5  0.006  0.000  0.029  0.000  0.000  0.000  0.001  0.000  0.000  0.035
tot    0.040  0.000  0.209  0.000  0.000  0.000  0.139  0.000  0.000  0.388
 
band    31 # energy   13.89491466 # occ.  0.00000000
 
ion      s     py     pz     px    dxy    dyz    dz2    dxz  x2-y2    tot
    1  0.001  0.000  0.012  0.000  0.000  0.000  0.020  0.000  0.000  0.034
    2  0.001  0.000  0.012  0.000  0.000  0.000  0.020  0.000  0.000  0.034
    3  0.005  0.000  0.000  0.000  0.000  0.000  0.001  0.000  0.000  0.006
    4  0.003  0.000  0.000  0.000  0.000  0.000  0.035  0.000  0.000  0.037
    5  0.003  0.000  0.000  0.000  0.000  0.000  0.035  0.000  0.000  0.037
tot    0.012  0.000  0.025  0.000  0.000  0.000  0.111  0.000  0.000  0.148
 
band    32 # energy   14.15011502 # occ.  0.00000000
 
ion      s     py     pz     px    dxy    dyz    dz2    dxz  x2-y2    tot
    1  0.001  0.000  0.003  0.000  0.000  0.000  0.035  0.000  0.000  0.039
    2  0.001  0.000  0.003  0.000  0.000  0.000  0.035  0.000  0.000  0.039
    3  0.000  0.000  0.000  0.000  0.000  0.000  0.000  0.000  0.000  0.000
    4  0.001  0.000  0.001  0.000  0.000  0.000  0.012  0.000  0.000  0.014
    5  0.001  0.000  0.001  0.000  0.000  0.000  0.012  0.000  0.000  0.014
tot    0.004  0.000  0.008  0.000  0.000  0.000  0.093  0.000  0.000  0.105
 
band    33 # energy   15.44014373 # occ.  0.00000000
 
ion      s     py     pz     px    dxy    dyz    dz2    dxz  x2-y2    tot
    1  0.000  0.006  0.000  0.015  0.010  0.003  0.000  0.007  0.004  0.046
    2  0.000  0.006  0.000  0.015  0.010  0.003  0.000  0.007  0.004  0.046
    3  0.000  0.000  0.000  0.000  0.024  0.010  0.000  0.025  0.010  0.069
    4  0.000  0.001  0.000  0.003  0.023  0.012  0.000  0.029  0.010  0.078
    5  0.000  0.001  0.000  0.003  0.023  0.012  0.000  0.029  0.010  0.078
tot    0.000  0.015  0.000  0.036  0.091  0.041  0.000  0.097  0.038  0.317
 
band    34 # energy   15.44330258 # occ.  0.00000000
 
ion      s     py     pz     px    dxy    dyz    dz2    dxz  x2-y2    tot
    1  0.000  0.016  0.000  0.006  0.006  0.008  0.000  0.003  0.007  0.046
    2  0.000  0.014  0.000  0.007  0.003  0.007  0.000  0.003  0.014  0.047
    3  0.000  0.000  0.000  0.000  0.010  0.025  0.000  0.010  0.024  0.069
    4  0.000  0.004  0.000  0.001  0.010  0.030  0.000  0.011  0.021  0.078
    5  0.000  0.003  0.000  0.002  0.009  0.028  0.000  0.013  0.025  0.078
tot    0.000  0.036  0.001  0.015  0.038  0.097  0.000  0.040  0.091  0.318
 
band    35 # energy   16.03577337 # occ.  0.00000000
 
ion      s     py     pz     px    dxy    dyz    dz2    dxz  x2-y2    tot
    1  0.003  0.002  0.089  0.001  0.014  0.002  0.007  0.001  0.028  0.146
    2  0.003  0.001  0.089  0.001  0.014  0.002  0.007  0.001  0.029  0.146
    3  0.001  0.007  0.000  0.004  0.000  0.000  0.019  0.000  0.000  0.031
    4  0.000  0.003  0.050  0.001  0.002  0.001  0.004  0.001  0.004  0.065
    5  0.000  0.003  0.050  0.001  0.002  0.001  0.004  0.001  0.004  0.065
tot    0.006  0.016  0.278  0.008  0.032  0.006  0.039  0.003  0.065  0.453
 
band    36 # energy   16.27482751 # occ.  0.00000000
 
ion      s     py     pz     px    dxy    dyz    dz2    dxz  x2-y2    tot
    1  0.000  0.003  0.000  0.007  0.128  0.004  0.000  0.007  0.064  0.214
    2  0.000  0.003  0.000  0.007  0.128  0.004  0.000  0.007  0.064  0.214
    3  0.000  0.016  0.000  0.032  0.000  0.000  0.000  0.000  0.000  0.048
    4  0.000  0.006  0.000  0.012  0.018  0.003  0.000  0.005  0.009  0.053
    5  0.000  0.006  0.000  0.012  0.018  0.003  0.000  0.005  0.009  0.053
tot    0.000  0.035  0.000  0.071  0.293  0.013  0.000  0.025  0.146  0.583
 

 k-point     2 :    0.12500000-0.00000000 0.00000000     weight = 0.01171875

band     1 # energy   -9.91458525 # occ.  2.00000000
 
ion      s     py     pz     px    dxy    dyz    dz2    dxz  x2-y2    tot
    1  0.148  0.000  0.000  0.001  0.000  0.000  0.000  0.000  0.000  0.150
    2  0.148  0.000  0.000  0.001  0.000  0.000  0.000  0.000  0.000  0.150
    3  0.191  0.000  0.000  0.000  0.000  0.000  0.000  0.000  0.000  0.191
    4  0.110  0.000  0.002  0.000  0.000  0.000  0.000  0.000  0.000  0.112
    5  0.110  0.000  0.002  0.000  0.000  0.000  0.000  0.000  0.000  0.112
tot    0.707  0.001  0.003  0.003  0.000  0.000  0.000  0.000  0.000  0.714
 
band     2 # energy   -9.14262256 # occ.  2.00000000
 
ion      s     py     pz     px    dxy    dyz    dz2    dxz  x2-y2    tot
    1  0.155  0.000  0.005  0.001  0.000  0.000  0.000  0.000  0.000  0.162
    2  0.155  0.000  0.005  0.001  0.000  0.000  0.000  0.000  0.000  0.162
    3  0.002  0.000  0.003  0.000  0.000  0.000  0.000  0.000  0.000  0.005
    4  0.208  0.000  0.004  0.000  0.000  0.000  0.000  0.000  0.000  0.212
    5  0.208  0.000  0.004  0.000  0.000  0.000  0.000  0.000  0.000  0.212
tot    0.727  0.001  0.021  0.002  0.000  0.000  0.000  0.000  0.000  0.752
 
band     3 # energy   -8.38035216 # occ.  2.00000000
 
ion      s     py     pz     px    dxy    dyz    dz2    dxz  x2-y2    tot
    1  0.001  0.000  0.020  0.000  0.000  0.000  0.000  0.000  0.000  0.021
    2  0.001  0.000  0.020  0.000  0.000  0.000  0.000  0.000  0.000  0.021
    3  0.349  0.000  0.000  0.000  0.000  0.000  0.000  0.000  0.000  0.349
    4  0.163  0.000  0.000  0.000  0.000  0.000  0.000  0.000  0.000  0.163
    5  0.163  0.000  0.000  0.000  0.000  0.000  0.000  0.000  0.000  0.163
tot    0.675  0.000  0.039  0.000  0.000  0.000  0.000  0.001  0.000  0.716
 
band     4 # energy   -5.23933364 # occ.  2.00000000
 
ion      s     py     pz     px    dxy    dyz    dz2    dxz  x2-y2    tot
    1  0.241  0.000  0.008  0.000  0.000  0.000  0.000  0.000  0.000  0.249
    2  0.241  0.000  0.008  0.000  0.000  0.000  0.000  0.000  0.000  0.249
    3  0.001  0.000  0.021  0.000  0.000  0.000  0.000  0.000  0.000  0.022
    4  0.158  0.000  0.002  0.001  0.000  0.000  0.000  0.000  0.000  0.161
    5  0.158  0.000  0.002  0.001  0.000  0.000  0.000  0.000  0.000  0.161
tot    0.799  0.001  0.040  0.002  0.000  0.000  0.000  0.001  0.000  0.843
 
band     5 # energy   -4.46741346 # occ.  2.00000000
 
ion      s     py     pz     px    dxy    dyz    dz2    dxz  x2-y2    tot
    1  0.264  0.000  0.000  0.001  0.000  0.000  0.000  0.000  0.000  0.266
    2  0.264  0.000  0.000  0.001  0.000  0.000  0.000  0.000  0.000  0.266
    3  0.166  0.001  0.000  0.002  0.000  0.000  0.000  0.000  0.000  0.168
    4  0.076  0.000  0.009  0.001  0.000  0.000  0.000  0.000  0.000  0.087
    5  0.076  0.000  0.009  0.001  0.000  0.000  0.000  0.000  0.000  0.087
tot    0.847  0.002  0.019  0.005  0.000  0.000  0.000  0.000  0.000  0.874
 
band     6 # energy    1.39150284 # occ.  2.00000000
 
ion      s     py     pz     px    dxy    dyz    dz2    dxz  x2-y2    tot
    1  0.008  0.018  0.039  0.054  0.001  0.000  0.002  0.000  0.000  0.123
    2  0.008  0.018  0.039  0.054  0.001  0.000  0.002  0.000  0.000  0.123
    3  0.001  0.019  0.091  0.056  0.000  0.000  0.000  0.000  0.000  0.167
    4  0.002  0.016  0.026  0.048  0.000  0.000  0.000  0.000  0.000  0.093
    5  0.002  0.016  0.026  0.048  0.000  0.000  0.000  0.000  0.000  0.093
tot    0.020  0.087  0.221  0.260  0.003  0.000  0.006  0.001  0.001  0.598
 
band     7 # energy    1.52290924 # occ.  2.00000000
 
ion      s     py     pz     px    dxy    dyz    dz2    dxz  x2-y2    tot
    1  0.011  0.014  0.019  0.042  0.001  0.000  0.003  0.001  0.000  0.091
    2  0.011  0.014  0.019  0.042  0.001  0.000  0.003  0.001  0.000  0.091
    3  0.000  0.002  0.064  0.007  0.000  0.000  0.000  0.000  0.000  0.074
    4  0.003  0.014  0.097  0.041  0.000  0.000  0.000  0.000  0.000  0.155
    5  0.003  0.014  0.097  0.041  0.000  0.000  0.000  0.000  0.000  0.155
tot    0.028  0.058  0.295  0.173  0.003  0.001  0.007  0.002  0.001  0.567
 
band     8 # energy    2.06096142 # occ.  2.00000000
 
ion      s     py     pz     px    dxy    dyz    dz2    dxz  x2-y2    tot
    1  0.000  0.080  0.000  0.027  0.001  0.000  0.000  0.000  0.003  0.110
    2  0.000  0.080  0.000  0.027  0.001  0.000  0.000  0.000  0.003  0.110
    3  0.000  0.145  0.000  0.048  0.000  0.000  0.000  0.000  0.000  0.194
    4  0.000  0.077  0.000  0.026  0.000  0.000  0.000  0.000  0.000  0.105
    5  0.000  0.077  0.000  0.026  0.000  0.000  0.000  0.000  0.000  0.105
tot    0.000  0.461  0.000  0.154  0.002  0.001  0.000  0.000  0.006  0.624
 
band     9 # energy    2.09484190 # occ.  2.00000000
 
ion      s     py     pz     px    dxy    dyz    dz2    dxz  x2-y2    tot
    1  0.001  0.001  0.074  0.003  0.006  0.001  0.000  0.004  0.002  0.092
    2  0.001  0.001  0.074  0.003  0.006  0.001  0.000  0.004  0.002  0.092
    3  0.013  0.047  0.030  0.142  0.000  0.000  0.001  0.000  0.000  0.234
    4  0.009  0.017  0.006  0.052  0.000  0.000  0.000  0.000  0.000  0.085
    5  0.009  0.017  0.006  0.052  0.000  0.000  0.000  0.000  0.000  0.085
tot    0.034  0.084  0.188  0.253  0.013  0.003  0.002  0.008  0.004  0.588
 
band    10 # energy    2.72547706 # occ.  2.00000000
 
ion      s     py     pz     px    dxy    dyz    dz2    dxz  x2-y2    tot
    1  0.000  0.076  0.000  0.025  0.002  0.004  0.000  0.001  0.006  0.113
    2  0.000  0.076  0.000  0.025  0.002  0.004  0.000  0.001  0.006  0.113
    3  0.000  0.003  0.000  0.001  0.000  0.001  0.000  0.000  0.000  0.005
    4  0.000  0.155  0.000  0.052  0.000  0.001  0.000  0.000  0.001  0.210
    5  0.000  0.155  0.000  0.052  0.000  0.001  0.000  0.000  0.001  0.210
tot    0.000  0.465  0.000  0.155  0.004  0.011  0.000  0.004  0.013  0.652
 
band    11 # energy    3.06151344 # occ.  2.00000000
 
ion      s     py     pz     px    dxy    dyz    dz2    dxz  x2-y2    tot
    1  0.000  0.005  0.000  0.002  0.002  0.008  0.000  0.003  0.007  0.026
    2  0.000  0.005  0.000  0.002  0.002  0.008  0.000  0.003  0.007  0.026
    3  0.000  0.207  0.000  0.069  0.000  0.000  0.000  0.000  0.000  0.276
    4  0.000  0.102  0.000  0.034  0.000  0.000  0.000  0.000  0.000  0.136
    5  0.000  0.102  0.000  0.034  0.000  0.000  0.000  0.000  0.000  0.136
tot    0.000  0.421  0.000  0.140  0.004  0.016  0.000  0.005  0.013  0.600
 
band    12 # energy    3.08539861 # occ.  2.00000000
 
ion      s     py     pz     px    dxy    dyz    dz2    dxz  x2-y2    tot
    1  0.020  0.005  0.022  0.016  0.005  0.001  0.001  0.002  0.002  0.074
    2  0.020  0.005  0.022  0.016  0.005  0.001  0.001  0.002  0.002  0.074
    3  0.008  0.001  0.132  0.004  0.000  0.000  0.000  0.000  0.000  0.145
    4  0.008  0.025  0.062  0.076  0.000  0.000  0.000  0.000  0.000  0.171
    5  0.008  0.025  0.062  0.076  0.000  0.000  0.000  0.000  0.000  0.171
tot    0.063  0.063  0.301  0.188  0.011  0.001  0.001  0.004  0.004  0.635
 
band    13 # energy    3.44369891 # occ.  2.00000000
 
ion      s     py     pz     px    dxy    dyz    dz2    dxz  x2-y2    tot
    1  0.019  0.012  0.008  0.035  0.001  0.001  0.002  0.002  0.000  0.079
    2  0.019  0.012  0.008  0.035  0.001  0.001  0.002  0.002  0.000  0.079
    3  0.003  0.032  0.008  0.097  0.000  0.000  0.000  0.000  0.000  0.142
    4  0.007  0.014  0.107  0.043  0.000  0.000  0.000  0.000  0.000  0.172
    5  0.007  0.014  0.107  0.043  0.000  0.000  0.000  0.000  0.000  0.172
tot    0.054  0.084  0.240  0.253  0.002  0.002  0.003  0.005  0.001  0.644
 
band    14 # energy    3.71892384 # occ.  2.00000000
 
ion      s     py     pz     px    dxy    dyz    dz2    dxz  x2-y2    tot
    1  0.037  0.007  0.038  0.022  0.001  0.000  0.004  0.001  0.000  0.112
    2  0.037  0.007  0.038  0.022  0.001  0.000  0.004  0.001  0.000  0.112
    3  0.009  0.002  0.041  0.007  0.001  0.000  0.000  0.001  0.000  0.064
    4  0.004  0.019  0.091  0.058  0.000  0.000  0.000  0.000  0.000  0.173
    5  0.004  0.019  0.091  0.058  0.000  0.000  0.000  0.000  0.000  0.173
tot    0.091  0.056  0.300  0.167  0.005  0.001  0.009  0.004  0.002  0.633
 
band    15 # energy    5.58427296 # occ.  0.00000000
 
ion      s     py     pz     px    dxy    dyz    dz2    dxz  x2-y2    tot
    1  0.008  0.006  0.137  0.019  0.002  0.000  0.002  0.001  0.001  0.178
    2  0.008  0.006  0.137  0.019  0.002  0.000  0.002  0.001  0.001  0.178
    3  0.040  0.007  0.002  0.021  0.001  0.000  0.003  0.000  0.000  0.074