PROCAR lm decomposed
# of k-points:    3         # of bands:   20         # of ions:    5

 k-point     1 :    0.00000000 0.00000000 0.00000000     weight = 0.33333333

band     1 # energy  -10.05799974 # occ.  2.00000000
 
ion      s     py     pz     px    dxy    dyz    dz2    dxz  x2-y2    tot
    1  0.153  0.000  0.000  0.000  0.000  0.000  0.000  0.000  0.000  0.153
    2  0.153  0.000  0.000  0.000  0.000  0.000  0.000  0.000  0.000  0.153
    3  0.186  0.000  0.000  0.000  0.000  0.000  0.000  0.000  0.000  0.186
    4  0.108  0.000  0.002  0.000  0.000  0.000  0.000  0.000  0.000  0.110
    5  0.108  0.000  0.002  0.000  0.000  0.000  0.000  0.000  0.000  0.110
tot    0.709  0.000  0.003  0.000  0.000  0.000  0.000  0.000  0.000  0.712
 
band     2 # energy   -9.26348274 # occ.  2.00000000
 
ion      s     py     pz     px    dxy    dyz    dz2    dxz  x2-y2    tot
    1  0.162  0.000  0.005  0.000  0.000  0.000  0.000  0.000  0.000  0.167
    2  0.162  0.000  0.005  0.000  0.000  0.000  0.000  0.000  0.000  0.167
    3  0.000  0.000  0.004  0.000  0.000  0.000  0.000  0.000  0.000  0.004
    4  0.202  0.000  0.004  0.000  0.000  0.000  0.000  0.000  0.000  0.207
    5  0.202  0.000  0.004  0.000  0.000  0.000  0.000  0.000  0.000  0.207
tot    0.728  0.000  0.023  0.000  0.000  0.000  0.000  0.000  0.000  0.751
 
band     3 # energy   -8.46021283 # occ.  2.00000000
 
ion      s     py     pz     px    dxy    dyz    dz2    dxz  x2-y2    tot
    1  0.000  0.000  0.022  0.000  0.000  0.000  0.000  0.000  0.000  0.022
    2  0.000  0.000  0.022  0.000  0.000  0.000  0.000  0.000  0.000  0.022
    3  0.346  0.000  0.000  0.000  0.000  0.000  0.000  0.000  0.000  0.346
    4  0.161  0.000  0.000  0.000  0.000  0.000  0.000  0.000  0.000  0.161
    5  0.161  0.000  0.000  0.000  0.000  0.000  0.000  0.000  0.000  0.161
tot    0.668  0.000  0.043  0.000  0.000  0.000  0.000  0.000  0.000  0.712
 
band     4 # energy   -5.15794889 # occ.  2.00000000
 
ion      s     py     pz     px    dxy    dyz    dz2    dxz  x2-y2    tot
    1  0.230  0.000  0.010  0.000  0.000  0.000  0.000  0.000  0.000  0.241
    2  0.230  0.000  0.010  0.000  0.000  0.000  0.000  0.000  0.000  0.241
    3  0.000  0.000  0.025  0.000  0.000  0.000  0.000  0.000  0.000  0.025
    4  0.165  0.000  0.002  0.000  0.000  0.000  0.000  0.000  0.000  0.167
    5  0.165  0.000  0.002  0.000  0.000  0.000  0.000  0.000  0.000  0.167
tot    0.790  0.000  0.049  0.000  0.000  0.000  0.000  0.000  0.000  0.840
 
band     5 # energy   -4.29702471 # occ.  2.00000000
 
ion      s     py     pz     px    dxy    dyz    dz2    dxz  x2-y2    tot
    1  0.259  0.000  0.000  0.000  0.000  0.000  0.000  0.000  0.000  0.260
    2  0.259  0.000  0.000  0.000  0.000  0.000  0.000  0.000  0.000  0.260
    3  0.174  0.000  0.000  0.000  0.000  0.000  0.000  0.000  0.000  0.174
    4  0.076  0.000  0.013  0.000  0.000  0.000  0.000  0.000  0.000  0.088
    5  0.076  0.000  0.013  0.000  0.000  0.000  0.000  0.000  0.000  0.088
tot    0.844  0.000  0.026  0.000  0.000  0.000  0.001  0.000  0.000  0.871
 
band     6 # energy    2.26874583 # occ.  2.00000000
 
ion      s     py     pz     px    dxy    dyz    dz2    dxz  x2-y2    tot
    1  0.031  0.000  0.019  0.000  0.000  0.000  0.005  0.000  0.000  0.056
    2  0.031  0.000  0.019  0.000  0.000  0.000  0.005  0.000  0.000  0.056
    3  0.015  0.000  0.000  0.000  0.000  0.000  0.000  0.000  0.000  0.016
    4  0.007  0.000  0.204  0.000  0.000  0.000  0.000  0.000  0.000  0.211
    5  0.007  0.000  0.204  0.000  0.000  0.000  0.000  0.000  0.000  0.211
tot    0.092  0.000  0.447  0.000  0.000  0.000  0.011  0.000  0.000  0.550
 
band     7 # energy    2.28906892 # occ.  2.00000000
 
ion      s     py     pz     px    dxy    dyz    dz2    dxz  x2-y2    tot
    1  0.026  0.000  0.097  0.000  0.000  0.000  0.001  0.000  0.000  0.124
    2  0.026  0.000  0.097  0.000  0.000  0.000  0.001  0.000  0.000  0.124
    3  0.000  0.000  0.317  0.000  0.000  0.000  0.000  0.000  0.000  0.317
    4  0.020  0.000  0.026  0.000  0.000  0.000  0.001  0.000  0.000  0.046
    5  0.020  0.000  0.026  0.000  0.000  0.000  0.001  0.000  0.000  0.046
tot    0.092  0.000  0.562  0.000  0.000  0.000  0.003  0.000  0.000  0.658
 
band     8 # energy    2.51213715 # occ.  2.00000000
 
ion      s     py     pz     px    dxy    dyz    dz2    dxz  x2-y2    tot
    1  0.000  0.056  0.000  0.046  0.000  0.000  0.000  0.000  0.000  0.102
    2  0.000  0.056  0.000  0.046  0.000  0.000  0.000  0.000  0.000  0.102
    3  0.000  0.167  0.000  0.137  0.000  0.000  0.000  0.000  0.000  0.303
    4  0.000  0.035  0.000  0.029  0.000  0.000  0.000  0.000  0.001  0.066
    5  0.000  0.035  0.000  0.029  0.000  0.000  0.000  0.000  0.001  0.066
tot    0.000  0.349  0.000  0.286  0.001  0.001  0.000  0.001  0.001  0.639
 
band     9 # energy    2.51213715 # occ.  2.00000000
 
ion      s     py     pz     px    dxy    dyz    dz2    dxz  x2-y2    tot
    1  0.000  0.046  0.000  0.056  0.000  0.000  0.000  0.000  0.000  0.102
    2  0.000  0.046  0.000  0.056  0.000  0.000  0.000  0.000  0.000  0.102
    3  0.000  0.137  0.000  0.167  0.000  0.000  0.000  0.000  0.000  0.303
    4  0.000  0.029  0.000  0.035  0.001  0.000  0.000  0.000  0.000  0.066
    5  0.000  0.029  0.000  0.035  0.001  0.000  0.000  0.000  0.000  0.066
tot    0.000  0.286  0.000  0.349  0.001  0.001  0.000  0.001  0.001  0.639
 
band    10 # energy    2.66332586 # occ.  2.00000000
 
ion      s     py     pz     px    dxy    dyz    dz2    dxz  x2-y2    tot
    1  0.000  0.071  0.000  0.005  0.001  0.003  0.000  0.000  0.007  0.087
    2  0.000  0.071  0.000  0.005  0.001  0.003  0.000  0.000  0.007  0.087
    3  0.000  0.000  0.000  0.000  0.000  0.000  0.000  0.000  0.001  0.001
    4  0.000  0.215  0.000  0.016  0.000  0.001  0.000  0.000  0.000  0.232
    5  0.000  0.215  0.000  0.016  0.000  0.001  0.000  0.000  0.000  0.232
tot    0.000  0.573  0.000  0.042  0.001  0.008  0.000  0.001  0.015  0.639
 
band    11 # energy    2.66332586 # occ.  2.00000000
 
ion      s     py     pz     px    dxy    dyz    dz2    dxz  x2-y2    tot
    1  0.000  0.005  0.000  0.071  0.007  0.000  0.000  0.003  0.001  0.087
    2  0.000  0.005  0.000  0.071  0.007  0.000  0.000  0.003  0.001  0.087
    3  0.000  0.000  0.000  0.000  0.001  0.000  0.000  0.000  0.000  0.001
    4  0.000  0.016  0.000  0.215  0.000  0.000  0.000  0.001  0.000  0.232
    5  0.000  0.016  0.000  0.215  0.000  0.000  0.000  0.001  0.000  0.232
tot    0.000  0.042  0.000  0.573  0.015  0.001  0.000  0.008  0.001  0.639
 
band    12 # energy    3.21411126 # occ.  2.00000000
 
ion      s     py     pz     px    dxy    dyz    dz2    dxz  x2-y2    tot
    1  0.000  0.006  0.000  0.003  0.006  0.007  0.000  0.003  0.012  0.037
    2  0.000  0.006  0.000  0.003  0.006  0.007  0.000  0.003  0.012  0.037
    3  0.000  0.127  0.000  0.064  0.000  0.000  0.000  0.000  0.000  0.191
    4  0.000  0.116  0.000  0.059  0.000  0.001  0.000  0.000  0.000  0.176
    5  0.000  0.116  0.000  0.059  0.000  0.001  0.000  0.000  0.000  0.176
tot    0.000  0.370  0.000  0.188  0.012  0.015  0.000  0.007  0.024  0.616
 
band    13 # energy    3.21411126 # occ.  2.00000000
 
ion      s     py     pz     px    dxy    dyz    dz2    dxz  x2-y2    tot
    1  0.000  0.003  0.000  0.006  0.012  0.003  0.000  0.007  0.006  0.037
    2  0.000  0.003  0.000  0.006  0.012  0.003  0.000  0.007  0.006  0.037
    3  0.000  0.064  0.000  0.127  0.000  0.000  0.000  0.000  0.000  0.191
    4  0.000  0.059  0.000  0.116  0.000  0.000  0.000  0.001  0.000  0.176
    5  0.000  0.059  0.000  0.116  0.000  0.000  0.000  0.001  0.000  0.176
tot    0.000  0.188  0.000  0.370  0.024  0.007  0.000  0.015  0.012  0.616
 
band    14 # energy    4.43098982 # occ.  2.00000000
 
ion      s     py     pz     px    dxy    dyz    dz2    dxz  x2-y2    tot
    1  0.051  0.000  0.004  0.000  0.000  0.000  0.012  0.000  0.000  0.067
    2  0.051  0.000  0.004  0.000  0.000  0.000  0.012  0.000  0.000  0.067
    3  0.000  0.000  0.039  0.000  0.000  0.000  0.000  0.000  0.000  0.039
    4  0.001  0.000  0.233  0.000  0.000  0.000  0.001  0.000  0.000  0.235
    5  0.001  0.000  0.233  0.000  0.000  0.000  0.001  0.000  0.000  0.235
tot    0.104  0.000  0.513  0.000  0.000  0.000  0.027  0.000  0.000  0.644
 
band    15 # energy    4.65936989 # occ.  0.00000000
 
ion      s     py     pz     px    dxy    dyz    dz2    dxz  x2-y2    tot
    1  0.003  0.000  0.226  0.000  0.000  0.000  0.000  0.000  0.000  0.229
    2  0.003  0.000  0.226  0.000  0.000  0.000  0.000  0.000  0.000  0.229
    3  0.069  0.000  0.000  0.000  0.000  0.000  0.006  0.000  0.000  0.075
    4  0.028  0.000  0.003  0.000  0.000  0.000  0.003  0.000  0.000  0.035
    5  0.028  0.000  0.003  0.000  0.000  0.000  0.003  0.000  0.000  0.035
tot    0.130  0.000  0.459  0.000  0.000  0.000  0.012  0.000  0.000  0.601
 
band    16 # energy    5.83240142 # occ.  0.00000000
 
ion      s     py     pz     px    dxy    dyz    dz2    dxz  x2-y2    tot
    1  0.000  0.250  0.000  0.021  0.000  0.002  0.000  0.000  0.004  0.276
    2  0.000  0.250  0.000  0.021  0.000  0.002  0.000  0.000  0.004  0.276
    3  0.000  0.000  0.000  0.000  0.001  0.006  0.000  0.001  0.010  0.017
    4  0.000  0.043  0.000  0.004  0.000  0.002  0.000  0.000  0.006  0.054
    5  0.000  0.043  0.000  0.004  0.000  0.002  0.000  0.000  0.006  0.054
tot    0.000  0.585  0.000  0.049  0.002  0.013  0.000  0.001  0.028  0.678
 
band    17 # energy    5.83240142 # occ.  0.00000000
 
ion      s     py     pz     px    dxy    dyz    dz2    dxz  x2-y2    tot
    1  0.000  0.021  0.000  0.250  0.004  0.000  0.000  0.002  0.000  0.276
    2  0.000  0.021  0.000  0.250  0.004  0.000  0.000  0.002  0.000  0.276
    3  0.000  0.000  0.000  0.000  0.010  0.001  0.000  0.006  0.001  0.017
    4  0.000  0.004  0.000  0.043  0.006  0.000  0.000  0.002  0.000  0.054
    5  0.000  0.004  0.000  0.043  0.006  0.000  0.000  0.002  0.000  0.054
tot    0.000  0.049  0.000  0.585  0.028  0.001  0.000  0.013  0.002  0.678
 
band    18 # energy    6.59664264 # occ.  0.00000000
 
ion      s     py     pz     px    dxy    dyz    dz2    dxz  x2-y2    tot
    1  0.006  0.000  0.186  0.000  0.000  0.000  0.001  0.000  0.000  0.193
    2  0.006  0.000  0.186  0.000  0.000  0.000  0.001  0.000  0.000  0.193
    3  0.000  0.000  0.134  0.000  0.000  0.000  0.000  0.000  0.000  0.134
    4  0.016  0.000  0.014  0.000  0.000  0.000  0.009  0.000  0.000  0.038
    5  0.016  0.000  0.014  0.000  0.000  0.000  0.009  0.000  0.000  0.038
tot    0.043  0.000  0.534  0.000  0.000  0.000  0.019  0.000  0.000  0.596
 
band    19 # energy    7.18452137 # occ.  0.00000000
 
ion      s     py     pz     px    dxy    dyz    dz2    dxz  x2-y2    tot
    1  0.000  0.081  0.000  0.181  0.000  0.000  0.000  0.001  0.000  0.264
    2  0.000  0.081  0.000  0.181  0.000  0.000  0.000  0.001  0.000  0.264
    3  0.000  0.021  0.000  0.046  0.000  0.000  0.000  0.000  0.000  0.066
    4  0.000  0.016  0.000  0.036  0.005  0.000  0.000  0.001  0.002  0.060
    5  0.000  0.016  0.000  0.036  0.005  0.000  0.000  0.001  0.002  0.060
tot    0.000  0.215  0.000  0.480  0.011  0.001  0.000  0.002  0.005  0.714
 
band    20 # energy    7.18452137 # occ.  0.00000000
 
ion      s     py     pz     px    dxy    dyz    dz2    dxz  x2-y2    tot
    1  0.000  0.181  0.000  0.081  0.000  0.001  0.000  0.000  0.000  0.264
    2  0.000  0.181  0.000  0.081  0.000  0.001  0.000  0.000  0.000  0.264
    3  0.000  0.046  0.000  0.021  0.000  0.000  0.000  0.000  0.000  0.066
    4  0.000  0.036  0.000  0.016  0.002  0.001  0.000  0.000  0.005  0.060
    5  0.000  0.036  0.000  0.016  0.002  0.001  0.000  0.000  0.005  0.060
tot    0.000  0.480  0.000  0.215  0.005  0.002  0.000  0.001  0.011  0.714
 

 k-point     2 :    0.25000000 0.25000000 0.25000000     weight = 0.33333333

band     1 # energy  -10.00993145 # occ.  2.00000000
 
ion      s     py     pz     px    dxy    dyz    dz2    dxz  x2-y2    tot
    1  0.155  0.000  0.000  0.000  0.000  0.000  0.000  0.000  0.000  0.155
    2  0.155  0.000  0.000  0.000  0.000  0.000  0.000  0.000  0.000  0.155
    3  0.200  0.000  0.000  0.000  0.000  0.000  0.000  0.000  0.000  0.200
    4  0.100  0.000  0.002  0.000  0.000  0.000  0.000  0.000  0.000  0.102
    5  0.100  0.000  0.002  0.000  0.000  0.000  0.000  0.000  0.000  0.102
tot    0.710  0.000  0.004  0.000  0.000  0.000  0.000  0.000  0.000  0.715
 
band     2 # energy   -9.41291954 # occ.  2.00000000
 
ion      s     py     pz     px    dxy    dyz    dz2    dxz  x2-y2    tot
    1  0.145  0.000  0.005  0.000  0.000  0.000  0.000  0.000  0.000  0.151
    2  0.145  0.000  0.005  0.000  0.000  0.000  0.000  0.000  0.000  0.151
    3  0.019  0.000  0.003  0.000  0.000  0.000  0.000  0.000  0.000  0.022
    4  0.203  0.000  0.003  0.000  0.000  0.000  0.000  0.000  0.000  0.206
    5  0.203  0.000  0.003  0.000  0.000  0.000  0.000  0.000  0.000  0.206
tot    0.716  0.000  0.020  0.000  0.000  0.000  0.000  0.000  0.000  0.736
 
band     3 # energy   -8.30510552 # occ.  2.00000000
 
ion      s     py     pz     px    dxy    dyz    dz2    dxz  x2-y2    tot
    1  0.007  0.000  0.022  0.000  0.000  0.000  0.000  0.000  0.000  0.029
    2  0.007  0.000  0.022  0.000  0.000  0.000  0.000  0.000  0.000  0.029
    3  0.323  0.000  0.000  0.000  0.000  0.000  0.000  0.000  0.000  0.323
    4  0.172  0.000  0.001  0.000  0.000  0.000  0.000  0.000  0.000  0.173
    5  0.172  0.000  0.001  0.000  0.000  0.000  0.000  0.000  0.000  0.173
tot    0.681  0.000  0.046  0.000  0.000  0.000  0.000  0.000  0.000  0.728
 
band     4 # energy   -5.38692416 # occ.  2.00000000
 
ion      s     py     pz     px    dxy    dyz    dz2    dxz  x2-y2    tot
    1  0.243  0.000  0.008  0.000  0.000  0.000  0.000  0.000  0.000  0.252
    2  0.243  0.000  0.008  0.000  0.000  0.000  0.000  0.000  0.000  0.252
    3  0.006  0.000  0.023  0.000  0.000  0.000  0.000  0.000  0.000  0.029
    4  0.137  0.000  0.006  0.000  0.000  0.000  0.000  0.000  0.000  0.142
    5  0.137  0.000  0.006  0.000  0.000  0.000  0.000  0.000  0.000  0.142
tot    0.767  0.000  0.051  0.000  0.000  0.000  0.001  0.000  0.000  0.818
 
band     5 # energy   -4.09511194 # occ.  2.00000000
 
ion      s     py     pz     px    dxy    dyz    dz2    dxz  x2-y2    tot
    1  0.256  0.000  0.001  0.000  0.000  0.000  0.000  0.000  0.000  0.257
    2  0.256  0.000  0.001  0.000  0.000  0.000  0.000  0.000  0.000  0.257
    3  0.161  0.000  0.001  0.000  0.000  0.000  0.000  0.000  0.000  0.162
    4  0.102  0.000  0.008  0.000  0.000  0.000  0.000  0.000  0.000  0.110
    5  0.102  0.000  0.008  0.000  0.000  0.000  0.000  0.000  0.000  0.110
tot    0.877  0.000  0.018  0.000  0.000  0.000  0.000  0.000  0.000  0.895
 
band     6 # energy    1.87505040 # occ.  2.00000000
 
ion      s     py     pz     px    dxy    dyz    dz2    dxz  x2-y2    tot
    1  0.009  0.000  0.065  0.000  0.000  0.000  0.001  0.000  0.000  0.075
    2  0.009  0.000  0.065  0.000  0.000  0.000  0.001  0.000  0.000  0.075
    3  0.003  0.000  0.156  0.000  0.000  0.000  0.000  0.000  0.000  0.159
    4  0.005  0.000  0.130  0.000  0.000  0.000  0.000  0.000  0.000  0.135
    5  0.005  0.000  0.130  0.000  0.000  0.000  0.000  0.000  0.000  0.135
tot    0.030  0.000  0.546  0.000  0.000  0.000  0.002  0.000  0.000  0.579
 
band     7 # energy    2.47370234 # occ.  2.00000000
 
ion      s     py     pz     px    dxy    dyz    dz2    dxz  x2-y2    tot
    1  0.000  0.082  0.000  0.017  0.000  0.000  0.000  0.000  0.000  0.100
    2  0.000  0.082  0.000  0.017  0.000  0.000  0.000  0.000  0.000  0.100
    3  0.000  0.200  0.000  0.042  0.000  0.000  0.000  0.000  0.000  0.242
    4  0.000  0.081  0.000  0.017  0.000  0.000  0.000  0.000  0.001  0.099
    5  0.000  0.081  0.000  0.017  0.000  0.000  0.000  0.000  0.001  0.099
tot    0.000  0.527  0.000  0.110  0.000  0.001  0.000  0.000  0.002  0.640
 
band     8 # energy    2.47370234 # occ.  2.00000000
 
ion      s     py     pz     px    dxy    dyz    dz2    dxz  x2-y2    tot
    1  0.000  0.017  0.000  0.082  0.000  0.000  0.000  0.000  0.000  0.100
    2  0.000  0.017  0.000  0.082  0.000  0.000  0.000  0.000  0.000  0.100
    3  0.000  0.042  0.000  0.200  0.000  0.000  0.000  0.000  0.000  0.242
    4  0.000  0.017  0.000  0.081  0.001  0.000  0.000  0.000  0.000  0.099
    5  0.000  0.017  0.000  0.081  0.001  0.000  0.000  0.000  0.000  0.099
tot    0.000  0.110  0.000  0.527  0.002  0.000  0.000  0.001  0.000  0.640
 
band     9 # energy    2.72347692 # occ.  2.00000000
 
ion      s     py     pz     px    dxy    dyz    dz2    dxz  x2-y2    tot
    1  0.052  0.000  0.045  0.000  0.000  0.000  0.006  0.000  0.000  0.103
    2  0.052  0.000  0.045  0.000  0.000  0.000  0.006  0.000  0.000  0.103
    3  0.006  0.000  0.172  0.000  0.000  0.000  0.000  0.000  0.000  0.178
    4  0.020  0.000  0.093  0.000  0.000  0.000  0.001  0.000  0.000  0.114
    5  0.020  0.000  0.093  0.000  0.000  0.000  0.001  0.000  0.000  0.114
tot    0.151  0.000  0.449  0.000  0.000  0.000  0.013  0.000  0.000  0.613
 
band    10 # energy    2.75514663 # occ.  2.00000000
 
ion      s     py     pz     px    dxy    dyz    dz2    dxz  x2-y2    tot
    1  0.000  0.032  0.000  0.047  0.005  0.001  0.000  0.002  0.003  0.090
    2  0.000  0.032  0.000  0.047  0.005  0.001  0.000  0.002  0.003  0.090
    3  0.000  0.021  0.000  0.031  0.001  0.000  0.000  0.000  0.000  0.053
    4  0.000  0.081  0.000  0.121  0.000  0.000  0.000  0.001  0.000  0.204
    5  0.000  0.081  0.000  0.121  0.000  0.000  0.000  0.001  0.000  0.204
tot    0.000  0.246  0.000  0.368  0.011  0.004  0.000  0.006  0.007  0.641
 
band    11 # energy    2.75514663 # occ.  2.00000000
 
ion      s     py     pz     px    dxy    dyz    dz2    dxz  x2-y2    tot
    1  0.000  0.047  0.000  0.032  0.003  0.002  0.000  0.001  0.005  0.090
    2  0.000  0.047  0.000  0.032  0.003  0.002  0.000  0.001  0.005  0.090
    3  0.000  0.031  0.000  0.021  0.000  0.000  0.000  0.000  0.001  0.053
    4  0.000  0.121  0.000  0.081  0.000  0.001  0.000  0.000  0.000  0.204
    5  0.000  0.121  0.000  0.081  0.000  0.001  0.000  0.000  0.000  0.204
tot    0.000  0.368  0.000  0.246  0.007  0.006  0.000  0.004  0.011  0.641
 
band    12 # energy    3.13944266 # occ.  2.00000000
 
ion      s     py     pz     px    dxy    dyz    dz2    dxz  x2-y2    tot
    1  0.000  0.001  0.000  0.013  0.015  0.001  0.000  0.008  0.002  0.040
    2  0.000  0.001  0.000  0.013  0.015  0.001  0.000  0.008  0.002  0.040
    3  0.000  0.020  0.000  0.177  0.000  0.000  0.000  0.000  0.000  0.197
    4  0.000  0.017  0.000  0.150  0.000  0.000  0.000  0.001  0.000  0.168
    5  0.000  0.017  0.000  0.150  0.000  0.000  0.000  0.001  0.000  0.168
tot    0.000  0.057  0.000  0.502  0.031  0.002  0.000  0.018  0.003  0.614
 
band    13 # energy    3.13944266 # occ.  2.00000000
 
ion      s     py     pz     px    dxy    dyz    dz2    dxz  x2-y2    tot
    1  0.000  0.013  0.000  0.001  0.002  0.008  0.000  0.001  0.015  0.040
    2  0.000  0.013  0.000  0.001  0.002  0.008  0.000  0.001  0.015  0.040
    3  0.000  0.177  0.000  0.020  0.000  0.000  0.000  0.000  0.000  0.197
    4  0.000  0.150  0.000  0.017  0.000  0.001  0.000  0.000  0.000  0.168
    5  0.000  0.150  0.000  0.017  0.000  0.001  0.000  0.000  0.000  0.168
tot    0.000  0.502  0.000  0.057  0.003  0.018  0.000  0.002  0.031  0.614
 
band    14 # energy    4.13627351 # occ.  2.00000000
 
ion      s     py     pz     px    dxy    dyz    dz2    dxz  x2-y2    tot
    1  0.027  0.000  0.098  0.000  0.000  0.000  0.007  0.000  0.000  0.132
    2  0.027  0.000  0.098  0.000  0.000  0.000  0.007  0.000  0.000  0.132
    3  0.034  0.000  0.019  0.000  0.000  0.000  0.003  0.000  0.000  0.056
    4  0.014  0.000  0.154  0.000  0.000  0.000  0.001  0.000  0.000  0.169
    5  0.014  0.000  0.154  0.000  0.000  0.000  0.001  0.000  0.000  0.169
tot    0.115  0.000  0.524  0.000  0.000  0.000  0.018  0.000  0.000  0.657
 
band    15 # energy    4.93285474 # occ.  0.00000000
 
ion      s     py     pz     px    dxy    dyz    dz2    dxz  x2-y2    tot
    1  0.019  0.000  0.134  0.000  0.000  0.000  0.004  0.000  0.000  0.157
    2  0.019  0.000  0.134  0.000  0.000  0.000  0.004  0.000  0.000  0.157
    3  0.038  0.000  0.006  0.000  0.000  0.000  0.003  0.000  0.000  0.047
    4  0.013  0.000  0.097  0.000  0.000  0.000  0.004  0.000  0.000  0.114
    5  0.013  0.000  0.097  0.000  0.000  0.000  0.004  0.000  0.000  0.114
tot    0.101  0.000  0.466  0.000  0.000  0.000  0.020  0.000  0.000  0.588
 
band    16 # energy    5.95141965 # occ.  0.00000000
 
ion      s     py     pz     px    dxy    dyz    dz2    dxz  x2-y2    tot
    1  0.000  0.052  0.000  0.210  0.004  0.001  0.000  0.002  0.001  0.270
    2  0.000  0.052  0.000  0.210  0.004  0.001  0.000  0.002  0.001  0.270
    3  0.000  0.000  0.000  0.001  0.008  0.001  0.000  0.006  0.002  0.019
    4  0.000  0.011  0.000  0.044  0.004  0.000  0.000  0.001  0.001  0.062
    5  0.000  0.011  0.000  0.044  0.004  0.000  0.000  0.001  0.001  0.062
tot    0.000  0.127  0.000  0.509  0.025  0.003  0.000  0.012  0.006  0.682
 
band    17 # energy    5.95141965 # occ.  0.00000000
 
ion      s     py     pz     px    dxy    dyz    dz2    dxz  x2-y2    tot
    1  0.000  0.210  0.000  0.052  0.001  0.002  0.000  0.001  0.004  0.270
    2  0.000  0.210  0.000  0.052  0.001  0.002  0.000  0.001  0.004  0.270
    3  0.000  0.001  0.000  0.000  0.002  0.006  0.000  0.001  0.008  0.019
    4  0.000  0.044  0.000  0.011  0.001  0.001  0.000  0.000  0.004  0.062
    5  0.000  0.044  0.000  0.011  0.001  0.001  0.000  0.000  0.004  0.062
tot    0.000  0.509  0.000  0.127  0.006  0.012  0.000  0.003  0.025  0.682
 
band    18 # energy    6.56024604 # occ.  0.00000000
 
ion      s     py     pz     px    dxy    dyz    dz2    dxz  x2-y2    tot
    1  0.010  0.000  0.196  0.000  0.000  0.000  0.000  0.000  0.000  0.207
    2  0.010  0.000  0.196  0.000  0.000  0.000  0.000  0.000  0.000  0.207
    3  0.000  0.000  0.136  0.000  0.000  0.000  0.000  0.000  0.000  0.136
    4  0.020  0.000  0.008  0.000  0.000  0.000  0.006  0.000  0.000  0.034
    5  0.020  0.000  0.008  0.000  0.000  0.000  0.006  0.000  0.000  0.034
tot    0.060  0.000  0.544  0.000  0.000  0.000  0.014  0.000  0.000  0.617
 
band    19 # energy    7.05017819 # occ.  0.00000000
 
ion      s     py     pz     px    dxy    dyz    dz2    dxz  x2-y2    tot
    1  0.000  0.123  0.000  0.140  0.000  0.001  0.000  0.001  0.000  0.266
    2  0.000  0.123  0.000  0.140  0.000  0.001  0.000  0.001  0.000  0.266
    3  0.000  0.031  0.000  0.035  0.000  0.000  0.000  0.000  0.000  0.067
    4  0.000  0.021  0.000  0.024  0.004  0.001  0.000  0.001  0.004  0.055
    5  0.000  0.021  0.000  0.024  0.004  0.001  0.000  0.001  0.004  0.055
tot    0.000  0.320  0.000  0.363  0.009  0.003  0.000  0.004  0.008  0.707
 
band    20 # energy    7.05017819 # occ.  0.00000000
 
ion      s     py     pz     px    dxy    dyz    dz2    dxz  x2-y2    tot
    1  0.000  0.140  0.000  0.123  0.000  0.001  0.000  0.001  0.000  0.266
    2  0.000  0.140  0.000  0.123  0.000  0.001  0.000  0.001  0.000  0.266
    3  0.000  0.035  0.000  0.031  0.000  0.000  0.000  0.000  0.000  0.067
    4  0.000  0.024  0.000  0.021  0.004  0.001  0.000  0.001  0.004  0.055
    5  0.000  0.024  0.000  0.021  0.004  0.001  0.000  0.001  0.004  0.055
tot    0.000  0.363  0.000  0.320  0.008  0.004  0.000  0.003  0.009  0.707
 

 k-point     3 :    0.50000000 0.50000000 0.50000000     weight = 0.33333333

band     1 # energy   -9.94060476 # occ.  2.00000000
 
ion      s     py     pz     px    dxy    dyz    dz2    dxz  x2-y2    tot
    1  0.161  0.000  0.000  0.000  0.000  0.000  0.000  0.000  0.000  0.161
    2  0.161  0.000  0.000  0.000  0.000  0.000  0.000  0.000  0.000  0.161
    3  0.234  0.000  0.000  0.000  0.000  0.000  0.000  0.000  0.000  0.234
    4  0.079  0.000  0.003  0.000  0.000  0.000  0.000  0.000  0.000  0.082
    5  0.079  0.000  0.003  0.000  0.000  0.000  0.000  0.000  0.000  0.082
tot    0.714  0.000  0.006  0.000  0.000  0.000  0.000  0.000  0.000  0.719
 
band     2 # energy   -9.55880386 # occ.  2.00000000
 
ion      s     py     pz     px    dxy    dyz    dz2    dxz  x2-y2    tot
    1  0.133  0.000  0.005  0.000  0.000  0.000  0.000  0.000  0.000  0.138
    2  0.133  0.000  0.005  0.000  0.000  0.000  0.000  0.000  0.000  0.138
    3  0.000  0.000  0.003  0.000  0.000  0.000  0.000  0.000  0.000  0.003
    4  0.221  0.000  0.002  0.000  0.000  0.000  0.000  0.000  0.000  0.222
    5  0.221  0.000  0.002  0.000  0.000  0.000  0.000  0.000  0.000  0.222
tot    0.707  0.000  0.017  0.000  0.000  0.000  0.000  0.000  0.000  0.724
 
band     3 # energy   -8.16978778 # occ.  2.00000000
 
ion      s     py     pz     px    dxy    dyz    dz2    dxz  x2-y2    tot
    1  0.005  0.000  0.023  0.000  0.000  0.000  0.000  0.000  0.000  0.028
    2  0.005  0.000  0.023  0.000  0.000  0.000  0.000  0.000  0.000  0.028
    3  0.319  0.000  0.000  0.000  0.000  0.000  0.000  0.000  0.000  0.319
    4  0.181  0.000  0.001  0.000  0.000  0.000  0.000  0.000  0.000  0.182
    5  0.181  0.000  0.001  0.000  0.000  0.000  0.000  0.000  0.000  0.182
tot    0.690  0.000  0.049  0.000  0.000  0.000  0.000  0.000  0.000  0.739
 
band     4 # energy   -5.57077131 # occ.  2.00000000
 
ion      s     py     pz     px    dxy    dyz    dz2    dxz  x2-y2    tot
    1  0.255  0.000  0.007  0.000  0.000  0.000  0.000  0.000  0.000  0.262
    2  0.255  0.000  0.007  0.000  0.000  0.000  0.000  0.000  0.000  0.262
    3  0.000  0.000  0.023  0.000  0.000  0.000  0.000  0.000  0.000  0.023
    4  0.121  0.000  0.007  0.000  0.000  0.000  0.000  0.000  0.000  0.128
    5  0.121  0.000  0.007  0.000  0.000  0.000  0.000  0.000  0.000  0.128
tot    0.751  0.000  0.052  0.000  0.000  0.000  0.001  0.000  0.000  0.803
 
band     5 # energy   -3.94269786 # occ.  2.00000000
 
ion      s     py     pz     px    dxy    dyz    dz2    dxz  x2-y2    tot
    1  0.257  0.000  0.000  0.000  0.000  0.000  0.000  0.000  0.000  0.257
    2  0.257  0.000  0.000  0.000  0.000  0.000  0.000  0.000  0.000  0.257
    3  0.158  0.000  0.000  0.000  0.000  0.000  0.000  0.000  0.000  0.159
    4  0.115  0.000  0.005  0.000  0.000  0.000  0.000  0.000  0.000  0.120
    5  0.115  0.000  0.005  0.000  0.000  0.000  0.000  0.000  0.000  0.120
tot    0.903  0.000  0.010  0.000  0.000  0.000  0.000  0.000  0.000  0.913
 
band     6 # energy    1.70740886 # occ.  2.00000000
 
ion      s     py     pz     px    dxy    dyz    dz2    dxz  x2-y2    tot
    1  0.000  0.000  0.068  0.000  0.000  0.000  0.000  0.000  0.000  0.068
    2  0.000  0.000  0.068  0.000  0.000  0.000  0.000  0.000  0.000  0.068
    3  0.000  0.000  0.159  0.000  0.000  0.000  0.000  0.000  0.000  0.159
    4  0.000  0.000  0.135  0.000  0.000  0.000  0.000  0.000  0.000  0.135
    5  0.000  0.000  0.135  0.000  0.000  0.000  0.000  0.000  0.000  0.135
tot    0.000  0.000  0.564  0.000  0.000  0.000  0.001  0.000  0.000  0.565
 
band     7 # energy    2.44980688 # occ.  2.00000000
 
ion      s     py     pz     px    dxy    dyz    dz2    dxz  x2-y2    tot
    1  0.000  0.083  0.000  0.017  0.000  0.000  0.000  0.000  0.000  0.099
    2  0.000  0.083  0.000  0.017  0.000  0.000  0.000  0.000  0.000  0.099
    3  0.000  0.185  0.000  0.038  0.000  0.000  0.000  0.000  0.000  0.223
    4  0.000  0.090  0.000  0.018  0.000  0.000  0.000  0.000  0.000  0.109
    5  0.000  0.090  0.000  0.018  0.000  0.000  0.000  0.000  0.000  0.109
tot    0.000  0.530  0.000  0.109  0.000  0.001  0.000  0.000  0.001  0.640
 
band     8 # energy    2.44980688 # occ.  2.00000000
 
ion      s     py     pz     px    dxy    dyz    dz2    dxz  x2-y2    tot
    1  0.000  0.017  0.000  0.083  0.000  0.000  0.000  0.000  0.000  0.099
    2  0.000  0.017  0.000  0.083  0.000  0.000  0.000  0.000  0.000  0.099
    3  0.000  0.038  0.000  0.185  0.000  0.000  0.000  0.000  0.000  0.223
    4  0.000  0.018  0.000  0.090  0.000  0.000  0.000  0.000  0.000  0.109
    5  0.000  0.018  0.000  0.090  0.000  0.000  0.000  0.000  0.000  0.109
tot    0.000  0.109  0.000  0.530  0.001  0.000  0.000  0.001  0.000  0.640
 
band     9 # energy    2.87942052 # occ.  2.00000000
 
ion      s     py     pz     px    dxy    dyz    dz2    dxz  x2-y2    tot
    1  0.000  0.047  0.000  0.051  0.004  0.002  0.000  0.002  0.004  0.109
    2  0.000  0.047  0.000  0.051  0.004  0.002  0.000  0.002  0.004  0.109
    3  0.000  0.000  0.000  0.000  0.001  0.000  0.000  0.000  0.001  0.002
    4  0.000  0.105  0.000  0.112  0.001  0.001  0.000  0.001  0.001  0.220
    5  0.000  0.105  0.000  0.112  0.001  0.001  0.000  0.001  0.001  0.220
tot    0.000  0.304  0.000  0.326  0.010  0.005  0.000  0.006  0.009  0.660
 
band    10 # energy    2.87942052 # occ.  2.00000000
 
ion      s     py     pz     px    dxy    dyz    dz2    dxz  x2-y2    tot
    1  0.000  0.051  0.000  0.047  0.004  0.002  0.000  0.002  0.004  0.109
    2  0.000  0.051  0.000  0.047  0.004  0.002  0.000  0.002  0.004  0.109
    3  0.000  0.000  0.000  0.000  0.001  0.000  0.000  0.000  0.001  0.002
    4  0.000  0.112  0.000  0.105  0.001  0.001  0.000  0.001  0.001  0.220
    5  0.000  0.112  0.000  0.105  0.001  0.001  0.000  0.001  0.001  0.220
tot    0.000  0.326  0.000  0.304  0.009  0.006  0.000  0.005  0.010  0.660
 
band    11 # energy    2.95589481 # occ.  2.00000000
 
ion      s     py     pz     px    dxy    dyz    dz2    dxz  x2-y2    tot
    1  0.069  0.000  0.028  0.000  0.000  0.000  0.008  0.000  0.000  0.106
    2  0.069  0.000  0.028  0.000  0.000  0.000  0.008  0.000  0.000  0.106