PROCAR lm decomposed
# of k-points:    3         # of bands:   40         # of ions:    5

 k-point     1 :    0.00000000 0.00000000 0.00000000     weight = 0.33333333

band     1 # energy  -10.05798039 # occ.  1.00000000
 
ion      s     py     pz     px    dxy    dyz    dz2    dxz  x2-y2    tot
    1  0.153  0.000  0.000  0.000  0.000  0.000  0.000  0.000  0.000  0.153
    2  0.153  0.000  0.000  0.000  0.000  0.000  0.000  0.000  0.000  0.153
    3  0.186  0.000  0.000  0.000  0.000  0.000  0.000  0.000  0.000  0.186
    4  0.108  0.000  0.002  0.000  0.000  0.000  0.000  0.000  0.000  0.110
    5  0.108  0.000  0.002  0.000  0.000  0.000  0.000  0.000  0.000  0.110
tot    0.709  0.000  0.003  0.000  0.000  0.000  0.000  0.000  0.000  0.712
    1 -0.147 -0.000 -0.000  0.000  0.000 -0.000 -0.000  0.000 -0.000 -0.147
    2 -0.147 -0.000 -0.000  0.000  0.000 -0.000 -0.000  0.000 -0.000 -0.147
    3 -0.179  0.000  0.000 -0.000  0.000 -0.000 -0.000  0.000 -0.000 -0.179
    4 -0.104 -0.000 -0.002  0.000  0.000 -0.000 -0.000  0.000 -0.000 -0.106
    5 -0.104 -0.000 -0.002  0.000  0.000 -0.000 -0.000  0.000 -0.000 -0.106
tot   -0.683 -0.000 -0.003  0.000  0.000 -0.000 -0.000  0.000 -0.000 -0.686
    1  0.008 -0.000  0.000  0.000  0.000 -0.000  0.000  0.000 -0.000  0.008
    2  0.008 -0.000  0.000  0.000  0.000 -0.000  0.000  0.000 -0.000  0.008
    3  0.010  0.000 -0.000  0.000  0.000  0.000  0.000  0.000 -0.000  0.010
    4  0.006 -0.000  0.000  0.000  0.000 -0.000  0.000  0.000 -0.000  0.006
    5  0.006 -0.000  0.000  0.000  0.000 -0.000  0.000  0.000 -0.000  0.006
tot    0.036 -0.000  0.000  0.000  0.000 -0.000  0.000  0.000 -0.000  0.036
    1 -0.040  0.000 -0.000  0.000  0.000  0.000 -0.000  0.000  0.000 -0.040
    2 -0.040  0.000 -0.000  0.000  0.000  0.000 -0.000  0.000  0.000 -0.040
    3 -0.049  0.000 -0.000 -0.000  0.000  0.000 -0.000  0.000  0.000 -0.049
    4 -0.029  0.000 -0.000  0.000  0.000  0.000 -0.000  0.000  0.000 -0.029
    5 -0.029  0.000 -0.000  0.000  0.000  0.000 -0.000  0.000  0.000 -0.029
tot   -0.187  0.000 -0.001  0.000  0.000  0.000 -0.000  0.000  0.000 -0.188
 
band     2 # energy  -10.05798039 # occ.  1.00000000
 
ion      s     py     pz     px    dxy    dyz    dz2    dxz  x2-y2    tot
    1  0.153  0.000  0.000  0.000  0.000  0.000  0.000  0.000  0.000  0.153
    2  0.153  0.000  0.000  0.000  0.000  0.000  0.000  0.000  0.000  0.153
    3  0.186  0.000  0.000  0.000  0.000  0.000  0.000  0.000  0.000  0.186
    4  0.108  0.000  0.002  0.000  0.000  0.000  0.000  0.000  0.000  0.110
    5  0.108  0.000  0.002  0.000  0.000  0.000  0.000  0.000  0.000  0.110
tot    0.709  0.000  0.003  0.000  0.000  0.000  0.000  0.000  0.000  0.712
    1  0.147  0.000  0.000 -0.000 -0.000  0.000  0.000 -0.000  0.000  0.147
    2  0.147  0.000  0.000 -0.000 -0.000  0.000  0.000 -0.000  0.000  0.147
    3  0.179 -0.000  0.000 -0.000 -0.000  0.000  0.000 -0.000  0.000  0.179
    4  0.104  0.000  0.002 -0.000 -0.000  0.000  0.000 -0.000  0.000  0.106
    5  0.104  0.000  0.002 -0.000 -0.000  0.000  0.000 -0.000  0.000  0.106
tot    0.683  0.000  0.003 -0.000 -0.000  0.000  0.000 -0.000  0.000  0.686
    1 -0.008  0.000 -0.000 -0.000 -0.000  0.000 -0.000 -0.000  0.000 -0.008
    2 -0.008  0.000 -0.000 -0.000 -0.000  0.000 -0.000 -0.000  0.000 -0.008
    3 -0.010  0.000 -0.000 -0.000 -0.000  0.000 -0.000 -0.000  0.000 -0.010
    4 -0.006  0.000 -0.000 -0.000 -0.000  0.000 -0.000 -0.000  0.000 -0.006
    5 -0.006  0.000 -0.000 -0.000 -0.000  0.000 -0.000 -0.000  0.000 -0.006
tot   -0.036  0.000 -0.000 -0.000 -0.000  0.000 -0.000 -0.000  0.000 -0.036
    1  0.040 -0.000  0.000 -0.000 -0.000 -0.000  0.000 -0.000 -0.000  0.040
    2  0.040 -0.000  0.000 -0.000 -0.000 -0.000  0.000 -0.000 -0.000  0.040
    3  0.049  0.000 -0.000  0.000 -0.000 -0.000  0.000 -0.000 -0.000  0.049
    4  0.029 -0.000  0.000 -0.000 -0.000 -0.000  0.000 -0.000 -0.000  0.029
    5  0.029 -0.000  0.000 -0.000 -0.000 -0.000  0.000 -0.000 -0.000  0.029
tot    0.187 -0.000  0.001 -0.000 -0.000 -0.000  0.000 -0.000 -0.000  0.188
 
band     3 # energy   -9.26466519 # occ.  1.00000000
 
ion      s     py     pz     px    dxy    dyz    dz2    dxz  x2-y2    tot
    1  0.162  0.000  0.005  0.000  0.000  0.000  0.000  0.000  0.000  0.167
    2  0.162  0.000  0.005  0.000  0.000  0.000  0.000  0.000  0.000  0.167
    3  0.000  0.000  0.004  0.000  0.000  0.000  0.000  0.000  0.000  0.004
    4  0.202  0.000  0.004  0.000  0.000  0.000  0.000  0.000  0.000  0.207
    5  0.202  0.000  0.004  0.000  0.000  0.000  0.000  0.000  0.000  0.207
tot    0.728  0.000  0.023  0.000  0.000  0.000  0.000  0.000  0.000  0.751
    1 -0.027 -0.000 -0.001  0.000  0.000 -0.000 -0.000  0.000 -0.000 -0.028
    2 -0.027 -0.000 -0.001  0.000  0.000 -0.000 -0.000  0.000 -0.000 -0.028
    3  0.000 -0.000 -0.001  0.000 -0.000  0.000 -0.000 -0.000  0.000 -0.001
    4 -0.034 -0.000 -0.001  0.000  0.000 -0.000 -0.000  0.000 -0.000 -0.034
    5 -0.034 -0.000 -0.001  0.000  0.000 -0.000 -0.000  0.000 -0.000 -0.034
tot   -0.121 -0.000 -0.004  0.000  0.000 -0.000 -0.000  0.000 -0.000 -0.125
    1 -0.112  0.000 -0.004 -0.000 -0.000  0.000 -0.000 -0.000  0.000 -0.116
    2 -0.112  0.000 -0.004 -0.000 -0.000  0.000 -0.000 -0.000  0.000 -0.116
    3 -0.000  0.000 -0.003 -0.000 -0.000 -0.000  0.000  0.000 -0.000 -0.003
    4 -0.140  0.000 -0.003 -0.000 -0.000  0.000 -0.000 -0.000  0.000 -0.143
    5 -0.140  0.000 -0.003 -0.000 -0.000  0.000 -0.000 -0.000  0.000 -0.143
tot   -0.504  0.000 -0.016 -0.000 -0.000  0.000 -0.000 -0.000  0.000 -0.520
    1 -0.113  0.000 -0.004  0.000  0.000  0.000 -0.000  0.000  0.000 -0.117
    2 -0.113  0.000 -0.004  0.000  0.000  0.000 -0.000  0.000  0.000 -0.117
    3 -0.000  0.000 -0.003  0.000 -0.000 -0.000 -0.000 -0.000 -0.000 -0.003
    4 -0.142  0.000 -0.003  0.000  0.000  0.000 -0.000  0.000  0.000 -0.145
    5 -0.142  0.000 -0.003  0.000  0.000  0.000 -0.000  0.000  0.000 -0.145
tot   -0.511  0.000 -0.016  0.000  0.000  0.000 -0.000  0.000  0.000 -0.527
 
band     4 # energy   -9.26466519 # occ.  1.00000000
 
ion      s     py     pz     px    dxy    dyz    dz2    dxz  x2-y2    tot
    1  0.162  0.000  0.005  0.000  0.000  0.000  0.000  0.000  0.000  0.167
    2  0.162  0.000  0.005  0.000  0.000  0.000  0.000  0.000  0.000  0.167
    3  0.000  0.000  0.004  0.000  0.000  0.000  0.000  0.000  0.000  0.004
    4  0.202  0.000  0.004  0.000  0.000  0.000  0.000  0.000  0.000  0.207
    5  0.202  0.000  0.004  0.000  0.000  0.000  0.000  0.000  0.000  0.207
tot    0.728  0.000  0.023  0.000  0.000  0.000  0.000  0.000  0.000  0.751
    1  0.027  0.000  0.001 -0.000 -0.000  0.000  0.000 -0.000  0.000  0.028
    2  0.027  0.000  0.001 -0.000 -0.000  0.000  0.000 -0.000  0.000  0.028
    3  0.000  0.000  0.001 -0.000 -0.000  0.000 -0.000  0.000 -0.000  0.001
    4  0.034  0.000  0.001 -0.000 -0.000  0.000  0.000 -0.000  0.000  0.034
    5  0.034  0.000  0.001 -0.000 -0.000  0.000  0.000 -0.000  0.000  0.034
tot    0.121  0.000  0.004 -0.000 -0.000  0.000  0.000 -0.000  0.000  0.125
    1  0.112 -0.000  0.004  0.000  0.000 -0.000  0.000  0.000 -0.000  0.116
    2  0.112 -0.000  0.004  0.000  0.000 -0.000  0.000  0.000 -0.000  0.116
    3 -0.000 -0.000  0.003  0.000  0.000  0.000  0.000  0.000  0.000  0.003
    4  0.140 -0.000  0.003  0.000  0.000 -0.000  0.000  0.000 -0.000  0.143
    5  0.140 -0.000  0.003  0.000  0.000 -0.000  0.000  0.000 -0.000  0.143
tot    0.504 -0.000  0.016  0.000  0.000 -0.000  0.000  0.000 -0.000  0.520
    1  0.113 -0.000  0.004 -0.000 -0.000 -0.000  0.000 -0.000 -0.000  0.117
    2  0.113 -0.000  0.004 -0.000 -0.000 -0.000  0.000 -0.000 -0.000  0.117
    3  0.000 -0.000  0.003 -0.000  0.000  0.000  0.000  0.000 -0.000  0.003
    4  0.142 -0.000  0.003 -0.000 -0.000 -0.000  0.000 -0.000 -0.000  0.145
    5  0.142 -0.000  0.003 -0.000 -0.000 -0.000  0.000 -0.000 -0.000  0.145
tot    0.511 -0.000  0.016 -0.000 -0.000 -0.000  0.000 -0.000 -0.000  0.527
 
band     5 # energy   -8.46527901 # occ.  1.00000000
 
ion      s     py     pz     px    dxy    dyz    dz2    dxz  x2-y2    tot
    1  0.000  0.000  0.022  0.000  0.000  0.000  0.000  0.000  0.000  0.022
    2  0.000  0.000  0.022  0.000  0.000  0.000  0.000  0.000  0.000  0.022
    3  0.346  0.000  0.000  0.000  0.000  0.000  0.000  0.000  0.000  0.346
    4  0.161  0.000  0.000  0.000  0.000  0.000  0.000  0.000  0.000  0.161
    5  0.161  0.000  0.000  0.000  0.000  0.000  0.000  0.000  0.000  0.161
tot    0.667  0.000  0.044  0.000  0.000  0.000  0.000  0.000  0.000  0.711
    1  0.000  0.000  0.019 -0.000 -0.000  0.000  0.000 -0.000  0.000  0.019
    2  0.000  0.000  0.019 -0.000 -0.000  0.000  0.000 -0.000  0.000  0.019
    3  0.295  0.000  0.000 -0.000 -0.000  0.000  0.000 -0.000  0.000  0.295
    4  0.137  0.000  0.000 -0.000 -0.000  0.000  0.000 -0.000  0.000  0.137
    5  0.137  0.000  0.000 -0.000 -0.000  0.000  0.000 -0.000  0.000  0.137
tot    0.569  0.000  0.037 -0.000 -0.000  0.000  0.000 -0.000  0.000  0.607
    1 -0.000  0.000 -0.000 -0.000 -0.000  0.000 -0.000 -0.000  0.000 -0.000
    2 -0.000  0.000 -0.000 -0.000 -0.000  0.000 -0.000 -0.000  0.000 -0.000
    3 -0.002  0.000 -0.000 -0.000 -0.000  0.000 -0.000 -0.000  0.000 -0.002
    4 -0.001  0.000 -0.000 -0.000 -0.000  0.000 -0.000 -0.000  0.000 -0.001
    5 -0.001  0.000 -0.000 -0.000 -0.000  0.000 -0.000 -0.000  0.000 -0.001
tot   -0.004  0.000 -0.000 -0.000 -0.000  0.000 -0.000 -0.000  0.000 -0.005
    1 -0.000  0.000 -0.011  0.000  0.000  0.000 -0.000  0.000  0.000 -0.011
    2 -0.000  0.000 -0.011  0.000  0.000  0.000 -0.000  0.000  0.000 -0.011
    3 -0.180 -0.000  0.000 -0.000  0.000  0.000 -0.000  0.000  0.000 -0.180
    4 -0.084  0.000 -0.000  0.000  0.000  0.000 -0.000  0.000  0.000 -0.084
    5 -0.084  0.000 -0.000  0.000  0.000  0.000 -0.000  0.000  0.000 -0.084
tot   -0.347  0.000 -0.023  0.000  0.000  0.000 -0.000  0.000  0.000 -0.370
 
band     6 # energy   -8.46527901 # occ.  1.00000000
 
ion      s     py     pz     px    dxy    dyz    dz2    dxz  x2-y2    tot
    1  0.000  0.000  0.022  0.000  0.000  0.000  0.000  0.000  0.000  0.022
    2  0.000  0.000  0.022  0.000  0.000  0.000  0.000  0.000  0.000  0.022
    3  0.346  0.000  0.000  0.000  0.000  0.000  0.000  0.000  0.000  0.346
    4  0.161  0.000  0.000  0.000  0.000  0.000  0.000  0.000  0.000  0.161
    5  0.161  0.000  0.000  0.000  0.000  0.000  0.000  0.000  0.000  0.161
tot    0.667  0.000  0.044  0.000  0.000  0.000  0.000  0.000  0.000  0.711
    1 -0.000 -0.000 -0.019  0.000  0.000 -0.000 -0.000  0.000 -0.000 -0.019
    2 -0.000 -0.000 -0.019  0.000  0.000 -0.000 -0.000  0.000 -0.000 -0.019
    3 -0.295 -0.000  0.000  0.000  0.000 -0.000 -0.000  0.000 -0.000 -0.295
    4 -0.137 -0.000 -0.000  0.000  0.000 -0.000 -0.000  0.000 -0.000 -0.137
    5 -0.137 -0.000 -0.000  0.000  0.000 -0.000 -0.000  0.000 -0.000 -0.137
tot   -0.569 -0.000 -0.037  0.000  0.000 -0.000 -0.000  0.000 -0.000 -0.607
    1  0.000 -0.000  0.000  0.000  0.000 -0.000  0.000  0.000 -0.000  0.000
    2  0.000 -0.000  0.000  0.000  0.000 -0.000  0.000  0.000 -0.000  0.000
    3  0.002  0.000 -0.000  0.000  0.000 -0.000  0.000  0.000 -0.000  0.002
    4  0.001 -0.000  0.000  0.000  0.000 -0.000  0.000  0.000 -0.000  0.001
    5  0.001 -0.000  0.000  0.000  0.000 -0.000  0.000  0.000 -0.000  0.001
tot    0.004 -0.000  0.000  0.000  0.000 -0.000  0.000  0.000 -0.000  0.005
    1  0.000 -0.000  0.011 -0.000 -0.000 -0.000  0.000 -0.000 -0.000  0.011
    2  0.000 -0.000  0.011 -0.000 -0.000 -0.000  0.000 -0.000 -0.000  0.011
    3  0.180 -0.000  0.000 -0.000 -0.000 -0.000  0.000 -0.000 -0.000  0.180
    4  0.084 -0.000  0.000 -0.000 -0.000 -0.000  0.000 -0.000 -0.000  0.084
    5  0.084 -0.000  0.000 -0.000 -0.000 -0.000  0.000 -0.000 -0.000  0.084
tot    0.347 -0.000  0.023 -0.000 -0.000 -0.000  0.000 -0.000 -0.000  0.370
 
band     7 # energy   -5.16155266 # occ.  1.00000000
 
ion      s     py     pz     px    dxy    dyz    dz2    dxz  x2-y2    tot
    1  0.230  0.000  0.010  0.000  0.000  0.000  0.000  0.000  0.000  0.241
    2  0.230  0.000  0.010  0.000  0.000  0.000  0.000  0.000  0.000  0.241
    3  0.000  0.000  0.025  0.000  0.000  0.000  0.000  0.000  0.000  0.025
    4  0.164  0.000  0.002  0.000  0.000  0.000  0.000  0.000  0.000  0.166
    5  0.164  0.000  0.002  0.000  0.000  0.000  0.000  0.000  0.000  0.166
tot    0.789  0.000  0.050  0.000  0.000  0.000  0.000  0.000  0.000  0.839
    1  0.052  0.000  0.002 -0.000 -0.000  0.000  0.000 -0.000  0.000  0.054
    2  0.052  0.000  0.002 -0.000 -0.000  0.000  0.000 -0.000  0.000  0.054
    3  0.000  0.000  0.006 -0.000  0.000  0.000 -0.000 -0.000 -0.000  0.006
    4  0.037  0.000  0.000 -0.000 -0.000  0.000  0.000 -0.000  0.000  0.037
    5  0.037  0.000  0.000 -0.000 -0.000  0.000  0.000 -0.000  0.000  0.037
tot    0.177  0.000  0.011 -0.000 -0.000  0.000  0.000 -0.000  0.000  0.189
    1 -0.199  0.000 -0.009 -0.000 -0.000  0.000 -0.000 -0.000  0.000 -0.208
    2 -0.199  0.000 -0.009 -0.000 -0.000  0.000 -0.000 -0.000  0.000 -0.208
    3 -0.000  0.000 -0.021 -0.000  0.000 -0.000 -0.000  0.000 -0.000 -0.021
    4 -0.142  0.000 -0.002 -0.000 -0.000  0.000 -0.000 -0.000  0.000 -0.143
    5 -0.142  0.000 -0.002 -0.000 -0.000  0.000 -0.000 -0.000  0.000 -0.143
tot   -0.681  0.000 -0.043 -0.000 -0.000  0.000 -0.000 -0.000  0.000 -0.724
    1  0.104 -0.000  0.005 -0.000 -0.000 -0.000  0.000 -0.000 -0.000  0.109
    2  0.104 -0.000  0.005 -0.000 -0.000 -0.000  0.000 -0.000 -0.000  0.109
    3 -0.000 -0.000  0.011 -0.000 -0.000  0.000  0.000 -0.000  0.000  0.011
    4  0.074 -0.000  0.001 -0.000 -0.000 -0.000  0.000 -0.000 -0.000  0.075
    5  0.074 -0.000  0.001 -0.000 -0.000 -0.000  0.000 -0.000 -0.000  0.075
tot    0.357 -0.000  0.022 -0.000 -0.000 -0.000  0.000 -0.000 -0.000  0.380
 
band     8 # energy   -5.16155266 # occ.  1.00000000
 
ion      s     py     pz     px    dxy    dyz    dz2    dxz  x2-y2    tot
    1  0.230  0.000  0.010  0.000  0.000  0.000  0.000  0.000  0.000  0.241
    2  0.230  0.000  0.010  0.000  0.000  0.000  0.000  0.000  0.000  0.241
    3  0.000  0.000  0.025  0.000  0.000  0.000  0.000  0.000  0.000  0.025
    4  0.164  0.000  0.002  0.000  0.000  0.000  0.000  0.000  0.000  0.166
    5  0.164  0.000  0.002  0.000  0.000  0.000  0.000  0.000  0.000  0.166
tot    0.789  0.000  0.050  0.000  0.000  0.000  0.000  0.000  0.000  0.839
    1 -0.052 -0.000 -0.002  0.000  0.000 -0.000 -0.000  0.000 -0.000 -0.054
    2 -0.052 -0.000 -0.002  0.000  0.000 -0.000 -0.000  0.000 -0.000 -0.054
    3  0.000 -0.000 -0.006  0.000  0.000 -0.000 -0.000  0.000 -0.000 -0.006
    4 -0.037 -0.000 -0.000  0.000  0.000 -0.000 -0.000  0.000 -0.000 -0.037
    5 -0.037 -0.000 -0.000  0.000  0.000 -0.000 -0.000  0.000 -0.000 -0.037
tot   -0.177 -0.000 -0.011  0.000  0.000 -0.000 -0.000  0.000 -0.000 -0.189
    1  0.199 -0.000  0.009  0.000  0.000 -0.000  0.000  0.000 -0.000  0.208
    2  0.199 -0.000  0.009  0.000  0.000 -0.000  0.000  0.000 -0.000  0.208
    3 -0.000 -0.000  0.021  0.000  0.000  0.000  0.000  0.000  0.000  0.021
    4  0.142 -0.000  0.002  0.000  0.000 -0.000  0.000  0.000 -0.000  0.143
    5  0.142 -0.000  0.002  0.000  0.000 -0.000  0.000  0.000 -0.000  0.143
tot    0.681 -0.000  0.043  0.000  0.000 -0.000  0.000  0.000 -0.000  0.724
    1 -0.104  0.000 -0.005  0.000  0.000  0.000 -0.000  0.000  0.000 -0.109
    2 -0.104  0.000 -0.005  0.000  0.000  0.000 -0.000  0.000  0.000 -0.109
    3 -0.000  0.000 -0.011  0.000  0.000 -0.000 -0.000 -0.000 -0.000 -0.011
    4 -0.074  0.000 -0.001  0.000  0.000  0.000 -0.000  0.000  0.000 -0.075
    5 -0.074  0.000 -0.001  0.000  0.000  0.000 -0.000  0.000  0.000 -0.075
tot   -0.357  0.000 -0.022  0.000  0.000  0.000 -0.000  0.000  0.000 -0.380
 
band     9 # energy   -4.29745929 # occ.  1.00000000
 
ion      s     py     pz     px    dxy    dyz    dz2    dxz  x2-y2    tot
    1  0.259  0.000  0.000  0.000  0.000  0.000  0.000  0.000  0.000  0.260
    2  0.259  0.000  0.000  0.000  0.000  0.000  0.000  0.000  0.000  0.260
    3  0.174  0.000  0.000  0.000  0.000  0.000  0.000  0.000  0.000  0.174
    4  0.076  0.000  0.013  0.000  0.000  0.000  0.000  0.000  0.000  0.089
    5  0.076  0.000  0.013  0.000  0.000  0.000  0.000  0.000  0.000  0.089
tot    0.844  0.000  0.026  0.000  0.000  0.000  0.001  0.000  0.000  0.870
    1 -0.087 -0.000 -0.000  0.000  0.000 -0.000 -0.000  0.000 -0.000 -0.088
    2 -0.087 -0.000 -0.000  0.000  0.000 -0.000 -0.000  0.000 -0.000 -0.088
    3 -0.059 -0.000 -0.000  0.000  0.000 -0.000 -0.000  0.000 -0.000 -0.059
    4 -0.026 -0.000 -0.004  0.000  0.000 -0.000 -0.000  0.000 -0.000 -0.030
    5 -0.026 -0.000 -0.004  0.000  0.000 -0.000 -0.000  0.000 -0.000 -0.030
tot   -0.285 -0.000 -0.009  0.000  0.000 -0.000 -0.000  0.000 -0.000 -0.294
    1  0.235 -0.000  0.000  0.000  0.000 -0.000  0.000  0.000 -0.000  0.236
    2  0.235 -0.000  0.000  0.000  0.000 -0.000  0.000  0.000 -0.000  0.236
    3  0.158  0.000 -0.000  0.000  0.000 -0.000  0.000  0.000 -0.000  0.158
    4  0.069 -0.000  0.012  0.000  0.000 -0.000  0.000  0.000 -0.000  0.080
    5  0.069 -0.000  0.012  0.000  0.000 -0.000  0.000  0.000 -0.000  0.080
tot    0.767 -0.000  0.024  0.000  0.000 -0.000  0.001  0.000 -0.000  0.791
    1  0.064 -0.000  0.000 -0.000 -0.000 -0.000  0.000 -0.000 -0.000  0.064
    2  0.064 -0.000  0.000 -0.000 -0.000 -0.000  0.000 -0.000 -0.000  0.064
    3  0.043 -0.000  0.000 -0.000 -0.000 -0.000  0.000 -0.000 -0.000  0.043
    4  0.019 -0.000  0.003 -0.000 -0.000 -0.000  0.000 -0.000 -0.000  0.022
    5  0.019 -0.000  0.003 -0.000 -0.000 -0.000  0.000 -0.000 -0.000  0.022
tot    0.208 -0.000  0.006 -0.000 -0.000 -0.000  0.000 -0.000 -0.000  0.215
 
band    10 # energy   -4.29745929 # occ.  1.00000000
 
ion      s     py     pz     px    dxy    dyz    dz2    dxz  x2-y2    tot
    1  0.259  0.000  0.000  0.000  0.000  0.000  0.000  0.000  0.000  0.260
    2  0.259  0.000  0.000  0.000  0.000  0.000  0.000  0.000  0.000  0.260
    3  0.174  0.000  0.000  0.000  0.000  0.000  0.000  0.000  0.000  0.174
    4  0.076  0.000  0.013  0.000  0.000  0.000  0.000  0.000  0.000  0.089
    5  0.076  0.000  0.013  0.000  0.000  0.000  0.000  0.000  0.000  0.089
tot    0.844  0.000  0.026  0.000  0.000  0.000  0.001  0.000  0.000  0.870
    1  0.087  0.000  0.000 -0.000 -0.000  0.000  0.000 -0.000  0.000  0.088
    2  0.087  0.000  0.000 -0.000 -0.000  0.000  0.000 -0.000  0.000  0.088
    3  0.059  0.000  0.000 -0.000 -0.000  0.000  0.000 -0.000  0.000  0.059
    4  0.026  0.000  0.004 -0.000 -0.000  0.000  0.000 -0.000  0.000  0.030
    5  0.026  0.000  0.004 -0.000 -0.000  0.000  0.000 -0.000  0.000  0.030
tot    0.285  0.000  0.009 -0.000 -0.000  0.000  0.000 -0.000  0.000  0.294
    1 -0.235  0.000 -0.000 -0.000 -0.000  0.000 -0.000 -0.000  0.000 -0.236
    2 -0.235  0.000 -0.000 -0.000 -0.000  0.000 -0.000 -0.000  0.000 -0.236
    3 -0.158  0.000  0.000 -0.000 -0.000  0.000 -0.000 -0.000  0.000 -0.158
    4 -0.069  0.000 -0.012 -0.000 -0.000  0.000 -0.000 -0.000  0.000 -0.080
    5 -0.069  0.000 -0.012 -0.000 -0.000  0.000 -0.000 -0.000  0.000 -0.080
tot   -0.767  0.000 -0.024 -0.000 -0.000  0.000 -0.001 -0.000  0.000 -0.791
    1 -0.064  0.000 -0.000  0.000  0.000  0.000 -0.000  0.000  0.000 -0.064
    2 -0.064  0.000 -0.000  0.000  0.000  0.000 -0.000  0.000  0.000 -0.064
    3 -0.043 -0.000 -0.000 -0.000  0.000  0.000 -0.000  0.000  0.000 -0.043
    4 -0.019  0.000 -0.003  0.000  0.000  0.000 -0.000  0.000  0.000 -0.022
    5 -0.019  0.000 -0.003  0.000  0.000  0.000 -0.000  0.000  0.000 -0.022
tot   -0.208  0.000 -0.006  0.000  0.000  0.000 -0.000  0.000  0.000 -0.215
 
band    11 # energy    1.73117175 # occ.  1.00000000
 
ion      s     py     pz     px    dxy    dyz    dz2    dxz  x2-y2    tot
    1  0.010  0.046  0.059  0.046  0.000  0.000  0.000  0.000  0.000  0.160
    2  0.010  0.046  0.059  0.046  0.000  0.000  0.000  0.000  0.000  0.160
    3  0.000  0.057  0.108  0.057  0.000  0.000  0.000  0.000  0.000  0.222
    4  0.012  0.018  0.012  0.018  0.000  0.000  0.000  0.000  0.000  0.062
    5  0.012  0.018  0.012  0.018  0.000  0.000  0.000  0.000  0.000  0.062
tot    0.042  0.186  0.250  0.186  0.001  0.001  0.001  0.001  0.001  0.667
    1  0.006  0.030  0.038 -0.030 -0.000  0.000  0.000 -0.000  0.000  0.044
    2  0.006  0.030  0.038 -0.030 -0.000  0.000  0.000 -0.000  0.000  0.044
    3 -0.000  0.036  0.070 -0.036  0.000 -0.000 -0.000  0.000 -0.000  0.070
    4  0.007  0.012  0.008 -0.012 -0.000  0.000  0.000 -0.000  0.000  0.015
    5  0.007  0.012  0.008 -0.012 -0.000  0.000  0.000 -0.000  0.000  0.015
tot    0.027  0.119  0.161 -0.119 -0.000  0.000  0.001 -0.000  0.000  0.189
    1  0.003 -0.014  0.018  0.014  0.000 -0.000  0.000  0.000 -0.000  0.021
    2  0.003 -0.014  0.018  0.014  0.000 -0.000  0.000  0.000 -0.000  0.021
    3  0.000 -0.018  0.034  0.018 -0.000  0.000  0.000 -0.000 -0.000  0.034
    4  0.004 -0.006  0.004  0.006  0.000 -0.000  0.000  0.000 -0.000  0.007
    5  0.004 -0.006  0.004  0.006  0.000 -0.000  0.000  0.000 -0.000  0.007
tot    0.013 -0.058  0.078  0.058  0.000 -0.000  0.000  0.000 -0.000  0.091
    1  0.007 -0.032  0.041 -0.032 -0.000 -0.000  0.000 -0.000 -0.000 -0.017
    2  0.007 -0.032  0.041 -0.032 -0.000 -0.000  0.000 -0.000 -0.000 -0.017
    3 -0.000 -0.040  0.076 -0.040 -0.000  0.000 -0.000  0.000  0.000 -0.003
    4  0.008 -0.013  0.009 -0.013 -0.000 -0.000  0.000 -0.000 -0.000 -0.010
    5  0.008 -0.013  0.009 -0.013 -0.000 -0.000  0.000 -0.000 -0.000 -0.010
tot    0.030 -0.130  0.175 -0.130 -0.001 -0.000  0.001 -0.000 -0.001 -0.056
 
band    12 # energy    1.73117175 # occ.  1.00000000
 
ion      s     py     pz     px    dxy    dyz    dz2    dxz  x2-y2    tot
    1  0.010  0.046  0.059  0.046  0.000  0.000  0.000  0.000  0.000  0.160
    2  0.010  0.046  0.059  0.046  0.000  0.000  0.000  0.000  0.000  0.160
    3  0.000  0.057  0.108  0.057  0.000  0.000  0.000  0.000  0.000  0.222
    4  0.012  0.018  0.012  0.018  0.000  0.000  0.000  0.000  0.000  0.062
    5  0.012  0.018  0.012  0.018  0.000  0.000  0.000  0.000  0.000  0.062
tot    0.042  0.186  0.250  0.186  0.001  0.001  0.001  0.001  0.001  0.667
    1 -0.006 -0.030 -0.038  0.030  0.000 -0.000 -0.000  0.000 -0.000 -0.044
    2 -0.006 -0.030 -0.038  0.030  0.000 -0.000 -0.000  0.000 -0.000 -0.044
    3  0.000 -0.036 -0.070  0.036  0.000 -0.000 -0.000  0.000 -0.000 -0.070
    4 -0.007 -0.012 -0.008  0.012  0.000 -0.000 -0.000  0.000 -0.000 -0.015
    5 -0.007 -0.012 -0.008  0.012  0.000 -0.000 -0.000  0.000 -0.000 -0.015
tot   -0.027 -0.119 -0.161  0.119  0.000 -0.000 -0.001  0.000 -0.000 -0.189
    1 -0.003  0.014 -0.018 -0.014 -0.000  0.000 -0.000 -0.000  0.000 -0.021
    2 -0.003  0.014 -0.018 -0.014 -0.000  0.000 -0.000 -0.000  0.000 -0.021
    3 -0.000  0.018 -0.034 -0.018  0.000  0.000 -0.000  0.000 -0.000 -0.034
    4 -0.004  0.006 -0.004 -0.006 -0.000  0.000 -0.000 -0.000  0.000 -0.007
    5 -0.004  0.006 -0.004 -0.006 -0.000  0.000 -0.000 -0.000  0.000 -0.007
tot   -0.013  0.058 -0.078 -0.058 -0.000  0.000 -0.000 -0.000  0.000 -0.091
    1 -0.007  0.032 -0.041  0.032  0.000  0.000 -0.000  0.000  0.000  0.017
    2 -0.007  0.032 -0.041  0.032  0.000  0.000 -0.000  0.000  0.000  0.017
    3  0.000  0.040 -0.076  0.040 -0.000  0.000 -0.000 -0.000  0.000  0.003
    4 -0.008  0.013 -0.009  0.013  0.000  0.000 -0.000  0.000  0.000  0.010
    5 -0.008  0.013 -0.009  0.013  0.000  0.000 -0.000  0.000  0.000  0.010
tot   -0.030  0.130 -0.175  0.130  0.001  0.000 -0.001  0.000  0.001  0.056
 
band    13 # energy    1.99802231 # occ.  1.00000000
 
ion      s     py     pz     px    dxy    dyz    dz2    dxz  x2-y2    tot
    1  0.015  0.033  0.029  0.033  0.001  0.000  0.002  0.000  0.001  0.116
    2  0.015  0.033  0.029  0.033  0.001  0.000  0.002  0.000  0.001  0.116
    3  0.016  0.000  0.000  0.000  0.000  0.000  0.000  0.000  0.000  0.018
    4  0.001  0.044  0.096  0.044  0.000  0.000  0.000  0.000  0.000  0.186
    5  0.001  0.044  0.096  0.044  0.000  0.000  0.000  0.000  0.000  0.186
tot    0.048  0.155  0.250  0.155  0.003  0.002  0.004  0.002  0.003  0.621
    1  0.004  0.009  0.008 -0.009 -0.000  0.000  0.001 -0.000  0.000  0.013
    2  0.004  0.009  0.008 -0.009 -0.000  0.000  0.001 -0.000  0.000  0.013
    3  0.005  0.000  0.000  0.000 -0.000  0.000  0.000 -0.000  0.000  0.005
    4  0.000  0.012  0.027 -0.012 -0.000  0.000  0.000 -0.000  0.000  0.027
    5  0.000  0.012  0.027 -0.012 -0.000  0.000  0.000 -0.000  0.000  0.027
tot    0.013  0.043  0.069 -0.043 -0.001  0.000  0.001 -0.000  0.001  0.084
    1  0.013 -0.030  0.026  0.030  0.001 -0.000  0.002  0.000 -0.001  0.041
    2  0.013 -0.030  0.026  0.030  0.001 -0.000  0.002  0.000 -0.001  0.041
    3  0.015 -0.000  0.000  0.000  0.000 -0.000  0.000  0.000 -0.000  0.015
    4  0.001 -0.040  0.087  0.040  0.000 -0.000  0.000  0.000 -0.000  0.088
    5  0.001 -0.040  0.087  0.040  0.000 -0.000  0.000  0.000 -0.000  0.088
tot    0.043 -0.140  0.226  0.140  0.003 -0.001  0.004  0.001 -0.003  0.273
    1 -0.005  0.011 -0.010  0.011  0.000  0.000 -0.001  0.000  0.000  0.008
    2 -0.005  0.011 -0.010  0.011  0.000  0.000 -0.001  0.000  0.000  0.008
    3 -0.005 -0.000 -0.000  0.000  0.000  0.000 -0.000  0.000  0.000 -0.005
    4 -0.000  0.014 -0.031  0.014  0.000  0.000 -0.000  0.000  0.000 -0.003
    5 -0.000  0.014 -0.031  0.014  0.000  0.000 -0.000  0.000  0.000 -0.003
tot   -0.016  0.051 -0.082  0.051  0.001  0.001 -0.001  0.001  0.001  0.005
 
band    14 # energy    1.99802231 # occ.  1.00000000
 
ion      s     py     pz     px    dxy    dyz    dz2    dxz  x2-y2    tot
    1  0.015  0.033  0.029  0.033  0.001  0.000  0.002  0.000  0.001  0.116
    2  0.015  0.033  0.029  0.033  0.001  0.000  0.002  0.000  0.001  0.116
    3  0.016  0.000  0.000  0.000  0.000  0.000  0.000  0.000  0.000  0.018
    4  0.001  0.044  0.096  0.044  0.000  0.000  0.000  0.000  0.000  0.186
    5  0.001  0.044  0.096  0.044  0.000  0.000  0.000  0.000  0.000  0.186
tot    0.048  0.155  0.250  0.155  0.003  0.002  0.004  0.002  0.003  0.621
    1 -0.004 -0.009 -0.008  0.009  0.000 -0.000 -0.001  0.000 -0.000 -0.013
    2 -0.004 -0.009 -0.008  0.009  0.000 -0.000 -0.001  0.000 -0.000 -0.013
    3 -0.005 -0.000  0.000  0.000  0.000 -0.000 -0.000  0.000 -0.000 -0.005
    4 -0.000 -0.012 -0.027  0.012  0.000 -0.000 -0.000  0.000 -0.000 -0.027
    5 -0.000 -0.012 -0.027  0.012  0.000 -0.000 -0.000  0.000 -0.000 -0.027
tot   -0.013 -0.043 -0.069  0.043  0.001 -0.000 -0.001  0.000 -0.001 -0.084
    1 -0.013  0.030 -0.026 -0.030 -0.001  0.000 -0.002 -0.000  0.001 -0.041
    2 -0.013  0.030 -0.026 -0.030 -0.001  0.000 -0.002 -0.000  0.001 -0.041
    3 -0.015  0.000 -0.000  0.000 -0.000  0.000 -0.000 -0.000  0.000 -0.015
    4 -0.001  0.040 -0.087 -0.040 -0.000  0.000 -0.000 -0.000  0.000 -0.088
    5 -0.001  0.040 -0.087 -0.040 -0.000  0.000 -0.000 -0.000  0.000 -0.088
tot   -0.043  0.140 -0.226 -0.140 -0.003  0.001 -0.004 -0.001  0.003 -0.273
    1  0.005 -0.011  0.010 -0.011 -0.000 -0.000  0.001 -0.000 -0.000 -0.008
    2  0.005 -0.011  0.010 -0.011 -0.000 -0.000  0.001 -0.000 -0.000 -0.008
    3  0.005  0.000 -0.000  0.000 -0.000 -0.000  0.000 -0.000 -0.000  0.005
    4  0.000 -0.014  0.031 -0.014 -0.000 -0.000  0.000 -0.000 -0.000  0.003
    5  0.000 -0.014  0.031 -0.014 -0.000 -0.000  0.000 -0.000 -0.000  0.003
tot    0.016 -0.051  0.082 -0.051 -0.001 -0.001  0.001 -0.001 -0.001 -0.005
 
band    15 # energy    2.51699780 # occ.  1.00000000
 
ion      s     py     pz     px    dxy    dyz    dz2    dxz  x2-y2    tot
    1  0.017  0.027  0.001  0.027  0.001  0.001  0.003  0.001  0.001  0.080
    2  0.017  0.027  0.001  0.027  0.001  0.001  0.003  0.001  0.001  0.080
    3  0.002  0.000  0.000  0.000  0.000  0.000  0.000  0.000  0.000  0.003
    4  0.007  0.048  0.108  0.048  0.000  0.000  0.000  0.000  0.000  0.212
    5  0.007  0.048  0.108  0.048  0.000  0.000  0.000  0.000  0.000  0.212
tot    0.051  0.150  0.219  0.150  0.003  0.002  0.007  0.002  0.003  0.587
    1  0.000  0.000  0.000 -0.000 -0.000  0.000  0.000 -0.000  0.000  0.000
    2  0.000  0.000  0.000 -0.000 -0.000  0.000  0.000 -0.000  0.000  0.000
    3  0.000 -0.000  0.000 -0.000 -0.000  0.000  0.000 -0.000  0.000  0.000
    4  0.000  0.001  0.002 -0.001 -0.000  0.000  0.000 -0.000  0.000  0.002
    5  0.000  0.001  0.002 -0.001 -0.000  0.000  0.000 -0.000  0.000  0.002
tot    0.001  0.002  0.004 -0.002 -0.000  0.000  0.000 -0.000  0.000  0.005
    1 -0.012  0.020 -0.001 -0.020 -0.001  0.001 -0.002 -0.001  0.001 -0.016
    2 -0.012  0.020 -0.001 -0.020 -0.001  0.001 -0.002 -0.001  0.001 -0.016
    3 -0.002 -0.000  0.000 -0.000 -0.000  0.000 -0.000 -0.000  0.000 -0.002
    4 -0.005  0.035 -0.078 -0.035 -0.000  0.000 -0.000 -0.000  0.000 -0.084
    5 -0.005  0.035 -0.078 -0.035 -0.000  0.000 -0.000 -0.000  0.000 -0.084
tot   -0.037  0.109 -0.159 -0.109 -0.002  0.002 -0.005 -0.002  0.002 -0.201
    1 -0.012  0.019 -0.001  0.019  0.001  0.001 -0.002  0.001  0.001  0.026
    2 -0.012  0.019 -0.001  0.019  0.001  0.001 -0.002  0.001  0.001  0.026
    3 -0.001 -0.000  0.000  0.000  0.000  0.000 -0.000  0.000  0.000 -0.001
    4 -0.005  0.033 -0.074  0.033  0.000  0.000 -0.000  0.000  0.000 -0.013
    5 -0.005  0.033 -0.074  0.033  0.000  0.000 -0.000  0.000  0.000 -0.013
tot   -0.035  0.103 -0.150  0.103  0.002  0.002 -0.005  0.002  0.002  0.024
 
band    16 # energy    2.51699780 # occ.  1.00000000
 
ion      s     py     pz     px    dxy    dyz    dz2    dxz  x2-y2    tot
    1  0.017  0.027  0.001  0.027  0.001  0.001  0.003  0.001  0.001  0.080
    2  0.017  0.027  0.001  0.027  0.001  0.001  0.003  0.001  0.001  0.080
    3  0.002  0.000  0.000  0.000  0.000  0.000  0.000  0.000  0.000  0.003
    4  0.007  0.048  0.108  0.048  0.000  0.000  0.000  0.000  0.000  0.212